 vasp.6.4.1 05Apr23 (build Jun 07 2023 15:38:11) complex                        
  
 executed on             LinuxIFC date 2023.10.16  22:46:17
 running  128 mpi-ranks, with    1 threads/rank, on    1 nodes
 distrk:  each k-point on  128 cores,    1 groups
 distr:  one band on NCORE=  32 cores,    4 groups


--------------------------------------------------------------------------------------------------------


 INCAR:
   GGA = PE
   PREC = Accu
   EDIFF = 1.e-6
   EDIFFG = -1.e-3
   ENCUT = 520.
   NELM = 100
   NELMDL = -10
   LASPH = .TRUE.
   LREAL = Auto
   LMAXMIX = 4
   ISPIN = 2
   LDIAG = .TRUE.
   LPLANE = .TRUE.
   IVDW = 12
   SIGMA = 0.03
   ISMEAR = 0
   NSW = 1000    number of steps for IOM
   IBRION = 2    ionic relax: 0-MD 1-quasi-New 2-CG
   ISIF = 2    ionic relaxation + stress tensor calcn.
   LCHARG = .FALSE.
   LWAVE = .FALSE.
   ALGO = F
   KPAR = 1
   NPAR = 4
   POTIM = 0.2

 POTCAR:    PAW_PBE Li_sv_GW 25Mar2010            
 POTCAR:    PAW_PBE P_GW 19Mar2012                
 POTCAR:    PAW_PBE S_GW 19Mar2012                
 POTCAR:    PAW_PBE Cl_GW 19Mar2012               
 -----------------------------------------------------------------------------
|                                                                             |
|           W    W    AA    RRRRR   N    N  II  N    N   GGGG   !!!           |
|           W    W   A  A   R    R  NN   N  II  NN   N  G    G  !!!           |
|           W    W  A    A  R    R  N N  N  II  N N  N  G       !!!           |
|           W WW W  AAAAAA  RRRRR   N  N N  II  N  N N  G  GGG   !            |
|           WW  WW  A    A  R   R   N   NN  II  N   NN  G    G                |
|           W    W  A    A  R    R  N    N  II  N    N   GGGG   !!!           |
|                                                                             |
|     You use a magnetic or noncollinear calculation, but did not specify     |
|     the initial magnetic moment with the MAGMOM tag. Note that a            |
|     default of 1 will be used for all atoms. This ferromagnetic setup       |
|     may break the symmetry of the crystal, in particular it may rule        |
|     out finding an antiferromagnetic solution. Thence, we recommend         |
|     setting the initial magnetic moment manually or verifying carefully     |
|     that this magnetic setup is desired.                                    |
|                                                                             |
 -----------------------------------------------------------------------------

 POTCAR:    PAW_PBE Li_sv_GW 25Mar2010            
   SHA256 =  24a6ace15a582615486b36ce4dc781b048409f4015b7684ed1273ae395fa2fdc Li_sv_GW/POTCAR       
   COPYR  = (c) Copyright 25Mar2010 Georg Kresse                                                    
   COPYR  = This file is part of the software VASP. Any use, copying, and all other rights are regul
   COPYR  = If you do not have a valid VASP license, you may not use, copy or distribute this file. 
   VRHFIN =Li: 1s2s                                                                                 
   LEXCH  = PE                                                                                      
   EATOM  =   200.9989 eV,   14.7730 Ry                                                             
                                                                                                    
   TITEL  = PAW_PBE Li_sv_GW 25Mar2010                                                              
   LULTRA =        F    use ultrasoft PP ?                                                          
   IUNSCR =        0    unscreen: 0-lin 1-nonlin 2-no                                               
   RPACOR =    0.000    partial core radius                                                         
   POMASS =    7.010; ZVAL   =    3.000    mass and valenz                                          
   RCORE  =    1.500    outmost cutoff radius                                                       
   RWIGS  =    1.600; RWIGS  =    0.847    wigner-seitz radius (au A)                               
   ENMAX  =  433.699; ENMIN  =  325.274 eV                                                          
   RCLOC  =    1.003    cutoff for local pot                                                        
   LCOR   =        T    correct aug charges                                                         
   LPAW   =        T    paw PP                                                                      
   EAUG   = 1041.699                                                                                
   RMAX   =    1.536    core radius for proj-oper                                                   
   RAUG   =    1.300    factor for augmentation sphere                                              
   RDEP   =    1.520    radius for radial grids                                                     
   RDEPT  =    1.300    core radius for aug-charge                                                  
                                                                                                    
   Atomic configuration                                                                             
    4 entries                                                                                       
     n  l   j            E        occ.                                                              
     1  0  0.50       -53.3604   2.0000                                                             
     1  0  0.50       -52.0001   0.0000                                                             
     2  1  0.50        -1.5636   1.0000                                                             
     3  2  1.50        -1.3606   0.0000                                                             
   Description                                                                                      
     l       E           TYP  RCUT    TYP  RCUT                                                     
     0    -53.3603633     23  1.200                                                                 
     0    -52.0001064     23  1.200                                                                 
     0    176.8757380     23  1.300                                                                 
     1     -1.5635925     23  1.500                                                                 
     1    108.8466080     23  1.500                                                                 
     2     81.6349560     23  1.500                                                                 
  local pseudopotential read in
  kinetic energy density of atom read in
  atomic valenz-charges read in
  non local Contribution for L=           0  read in
    real space projection operators read in
  non local Contribution for L=           0  read in
    real space projection operators read in
  non local Contribution for L=           0  read in
    real space projection operators read in
  non local Contribution for L=           1  read in
    real space projection operators read in
  non local Contribution for L=           1  read in
    real space projection operators read in
  non local Contribution for L=           2  read in
    real space projection operators read in
    PAW grid and wavefunctions read in
 
   number of l-projection  operators is LMAX  =           6
   number of lm-projection operators is LMMAX =          14
 
 POTCAR:    PAW_PBE P_GW 19Mar2012                
   SHA256 =  715c28f2291d37b61637ce89646c59f66f71c8b8d8bfba631e5feb9f7b42defe P_GW/POTCAR           
   COPYR  = (c) Copyright 19Mar2012 Georg Kresse                                                    
   COPYR  = This file is part of the software VASP. Any use, copying, and all other rights are regul
   COPYR  = If you do not have a valid VASP license, you may not use, copy or distribute this file. 
   VRHFIN =P : s2p3                                                                                 
   LEXCH  = PE                                                                                      
   EATOM  =   176.0430 eV,   12.9388 Ry                                                             
                                                                                                    
   TITEL  = PAW_PBE P_GW 19Mar2012                                                                  
   LULTRA =        F    use ultrasoft PP ?                                                          
   IUNSCR =        1    unscreen: 0-lin 1-nonlin 2-no                                               
   RPACOR =    1.400    partial core radius                                                         
   POMASS =   30.974; ZVAL   =    5.000    mass and valenz                                          
   RCORE  =    2.000    outmost cutoff radius                                                       
   RWIGS  =    1.900; RWIGS  =    1.005    wigner-seitz radius (au A)                               
   ENMAX  =  255.040; ENMIN  =  191.280 eV                                                          
   ICORE  =        3    local potential                                                             
   LCOR   =        T    correct aug charges                                                         
   LPAW   =        T    paw PP                                                                      
   EAUG   =  499.732                                                                                
   DEXC   =    0.000                                                                                
   RMAX   =    2.047    core radius for proj-oper                                                   
   RAUG   =    1.300    factor for augmentation sphere                                              
   RDEP   =    2.059    radius for radial grids                                                     
   RDEPT  =    1.900    core radius for aug-charge                                                  
                                                                                                    
   Atomic configuration                                                                             
    7 entries                                                                                       
     n  l   j            E        occ.                                                              
     1  0  0.50     -2084.0982   2.0000                                                             
     2  0  0.50      -173.9859   2.0000                                                             
     2  1  1.50      -124.4865   6.0000                                                             
     3  0  0.50       -13.9692   2.0000                                                             
     3  1  0.50        -5.5067   3.0000                                                             
     3  2  1.50        -6.8029   0.0000                                                             
     4  3  2.50        -1.3606   0.0000                                                             
   Description                                                                                      
     l       E           TYP  RCUT    TYP  RCUT                                                     
     0    -13.9691528     23  1.900                                                                 
     0    102.0436950     23  1.900                                                                 
     1     -5.5066939     23  1.900                                                                 
     1    102.0436950     23  1.900                                                                 
     2     -8.1634956     23  2.000                                                                 
     2     81.6349560     23  2.000                                                                 
     3     27.2116520     23  2.000                                                                 
  local pseudopotential read in
  partial core-charges read in
  partial kinetic energy density read in
  kinetic energy density of atom read in
  atomic valenz-charges read in
  non local Contribution for L=           0  read in
    real space projection operators read in
  non local Contribution for L=           0  read in
    real space projection operators read in
  non local Contribution for L=           1  read in
    real space projection operators read in
  non local Contribution for L=           1  read in
    real space projection operators read in
  non local Contribution for L=           2  read in
    real space projection operators read in
  non local Contribution for L=           2  read in
    real space projection operators read in
    PAW grid and wavefunctions read in
 
   number of l-projection  operators is LMAX  =           6
   number of lm-projection operators is LMMAX =          18
 
 POTCAR:    PAW_PBE S_GW 19Mar2012                
   SHA256 =  357db9cfb0783579b2eebe03197c2d807131fea8ea663b1fcfb6ce2fa75af011 S_GW/POTCAR           
   COPYR  = (c) Copyright 19Mar2012 Georg Kresse                                                    
   COPYR  = This file is part of the software VASP. Any use, copying, and all other rights are regul
   COPYR  = If you do not have a valid VASP license, you may not use, copy or distribute this file. 
   VRHFIN =S : s2p4                                                                                 
   LEXCH  = PE                                                                                      
   EATOM  =   276.8230 eV,   20.3459 Ry                                                             
                                                                                                    
   TITEL  = PAW_PBE S_GW 19Mar2012                                                                  
   LULTRA =        F    use ultrasoft PP ?                                                          
   IUNSCR =        1    unscreen: 0-lin 1-nonlin 2-no                                               
   RPACOR =    1.400    partial core radius                                                         
   POMASS =   32.066; ZVAL   =    6.000    mass and valenz                                          
   RCORE  =    1.900    outmost cutoff radius                                                       
   RWIGS  =    1.900; RWIGS  =    1.005    wigner-seitz radius (au A)                               
   ENMAX  =  258.689; ENMIN  =  194.016 eV                                                          
   ICORE  =        3    local potential                                                             
   LCOR   =        T    correct aug charges                                                         
   LPAW   =        T    paw PP                                                                      
   EAUG   =  488.319                                                                                
   DEXC   =    0.000                                                                                
   RMAX   =    1.942    core radius for proj-oper                                                   
   RAUG   =    1.300    factor for augmentation sphere                                              
   RDEP   =    1.954    radius for radial grids                                                     
   RDEPT  =    1.900    core radius for aug-charge                                                  
                                                                                                    
   Atomic configuration                                                                             
    7 entries                                                                                       
     n  l   j            E        occ.                                                              
     1  0  0.50     -2405.8406   2.0000                                                             
     2  0  0.50      -211.7007   2.0000                                                             
     2  1  1.50      -156.4958   6.0000                                                             
     3  0  0.50       -17.2562   2.0000                                                             
     3  1  0.50        -7.0085   4.0000                                                             
     3  2  1.50        -8.1635   0.0000                                                             
     4  3  2.50        -1.3606   0.0000                                                             
   Description                                                                                      
     l       E           TYP  RCUT    TYP  RCUT                                                     
     0    -17.2561639     23  1.700                                                                 
     0     88.4378690     23  1.900                                                                 
     1     -7.0085399     23  1.900                                                                 
     1     88.4378690     23  1.900                                                                 
     2    -10.8846608     23  1.900                                                                 
     2     54.4233040     23  1.900                                                                 
     3     27.2116520     23  1.800                                                                 
  local pseudopotential read in
  partial core-charges read in
  partial kinetic energy density read in
  kinetic energy density of atom read in
  atomic valenz-charges read in
  non local Contribution for L=           0  read in
    real space projection operators read in
  non local Contribution for L=           0  read in
    real space projection operators read in
  non local Contribution for L=           1  read in
    real space projection operators read in
  non local Contribution for L=           1  read in
    real space projection operators read in
  non local Contribution for L=           2  read in
    real space projection operators read in
  non local Contribution for L=           2  read in
    real space projection operators read in
    PAW grid and wavefunctions read in
 
   number of l-projection  operators is LMAX  =           6
   number of lm-projection operators is LMMAX =          18
 
 POTCAR:    PAW_PBE Cl_GW 19Mar2012               
   SHA256 =  3ef3b3169d6a9a89979f58b4cf17d927a58518fc660d8883d88cacaee8175441 Cl_GW/POTCAR          
   COPYR  = (c) Copyright 19Mar2012 Georg Kresse                                                    
   COPYR  = This file is part of the software VASP. Any use, copying, and all other rights are regul
   COPYR  = If you do not have a valid VASP license, you may not use, copy or distribute this file. 
   VRHFIN =Cl: s2p5                                                                                 
   LEXCH  = PE                                                                                      
   EATOM  =   409.7259 eV,   30.1140 Ry                                                             
                                                                                                    
   TITEL  = PAW_PBE Cl_GW 19Mar2012                                                                 
   LULTRA =        F    use ultrasoft PP ?                                                          
   IUNSCR =        1    unscreen: 0-lin 1-nonlin 2-no                                               
   RPACOR =    1.400    partial core radius                                                         
   POMASS =   35.453; ZVAL   =    7.000    mass and valenz                                          
   RCORE  =    1.900    outmost cutoff radius                                                       
   RWIGS  =    1.900; RWIGS  =    1.005    wigner-seitz radius (au A)                               
   ENMAX  =  262.472; ENMIN  =  196.854 eV                                                          
   ICORE  =        3    local potential                                                             
   LCOR   =        T    correct aug charges                                                         
   LPAW   =        T    paw PP                                                                      
   EAUG   =  456.703                                                                                
   DEXC   =    0.000                                                                                
   RMAX   =    1.945    core radius for proj-oper                                                   
   RAUG   =    1.300    factor for augmentation sphere                                              
   RDEP   =    2.020    radius for radial grids                                                     
   RDEPT  =    1.900    core radius for aug-charge                                                  
                                                                                                    
   Atomic configuration                                                                             
    7 entries                                                                                       
     n  l   j            E        occ.                                                              
     1  0  0.50     -2751.1850   2.0000                                                             
     2  0  0.50      -252.6861   2.0000                                                             
     2  1  1.50      -191.6157   6.0000                                                             
     3  0  0.50       -20.6916   2.0000                                                             
     3  1  0.50        -8.5949   5.0000                                                             
     3  2  1.50        -9.5241   0.0000                                                             
     4  3  2.50        -9.5241   0.0000                                                             
   Description                                                                                      
     l       E           TYP  RCUT    TYP  RCUT                                                     
     0    -20.6915657     23  1.700                                                                 
     0     95.2407820     23  1.800                                                                 
     1     -8.5948577     23  1.900                                                                 
     1     95.2407820     23  1.900                                                                 
     2    -10.8846608     23  1.900                                                                 
     2     54.4233040     23  1.900                                                                 
     3     27.2116520     23  1.900                                                                 
  local pseudopotential read in
  partial core-charges read in
  partial kinetic energy density read in
  kinetic energy density of atom read in
  atomic valenz-charges read in
  non local Contribution for L=           0  read in
    real space projection operators read in
  non local Contribution for L=           0  read in
    real space projection operators read in
  non local Contribution for L=           1  read in
    real space projection operators read in
  non local Contribution for L=           1  read in
    real space projection operators read in
  non local Contribution for L=           2  read in
    real space projection operators read in
  non local Contribution for L=           2  read in
    real space projection operators read in
    PAW grid and wavefunctions read in
 
   number of l-projection  operators is LMAX  =           6
   number of lm-projection operators is LMMAX =          18
 
 Optimization of the real space projectors (new method)

 maximal supplied QI-value         = 25.13
 optimisation between [QCUT,QGAM] = [ 11.56, 23.12] = [ 37.43,149.72] Ry 
 Optimized for a Real-space Cutoff    1.28 Angstroem

   l    n(q)    QCUT    max X(q) W(low)/X(q) W(high)/X(q)  e(spline) 
   0      9    11.561    87.733    0.11E-03    0.32E-04    0.56E-06
   0      9    11.561    82.800    0.11E-03    0.35E-04    0.56E-06
   0      9    11.561     2.509    0.22E-03    0.42E-04    0.79E-06
   1      8    11.561    12.580    0.94E-04    0.26E-03    0.21E-06
   1      8    11.561     1.319    0.33E-04    0.15E-03    0.19E-06
   2      8    11.561     1.993    0.36E-04    0.89E-04    0.26E-06
 Optimization of the real space projectors (new method)

 maximal supplied QI-value         = 18.90
 optimisation between [QCUT,QGAM] = [ 11.53, 23.24] = [ 37.21,151.29] Ry 
 Optimized for a Real-space Cutoff    1.21 Angstroem

   l    n(q)    QCUT    max X(q) W(low)/X(q) W(high)/X(q)  e(spline) 
   0      8    11.527     8.355    0.73E-04    0.70E-04    0.26E-07
   0      8    11.527     1.401    0.17E-03    0.17E-03    0.63E-07
   1      8    11.527     4.747    0.13E-03    0.17E-03    0.11E-06
   1      8    11.527     2.025    0.16E-03    0.18E-03    0.12E-06
   2      7    11.527     3.169    0.51E-04    0.25E-03    0.60E-07
   2      7    11.527     3.441    0.82E-04    0.22E-03    0.14E-06
 Optimization of the real space projectors (new method)

 maximal supplied QI-value         = 19.84
 optimisation between [QCUT,QGAM] = [ 11.51, 23.22] = [ 37.09,150.92] Ry 
 Optimized for a Real-space Cutoff    1.49 Angstroem

   l    n(q)    QCUT    max X(q) W(low)/X(q) W(high)/X(q)  e(spline) 
   0     10    11.508     7.541    0.34E-04    0.13E-04    0.69E-07
   0     10    11.508     1.809    0.49E-04    0.27E-04    0.14E-06
   1     10    11.508     4.107    0.27E-05    0.41E-05    0.14E-06
   1     10    11.508     2.196    0.26E-05    0.25E-05    0.22E-06
   2      9    11.508     4.265    0.18E-03    0.11E-03    0.81E-06
   2      9    11.508     1.925    0.97E-04    0.76E-04    0.47E-06
 Optimization of the real space projectors (new method)

 maximal supplied QI-value         = 19.84
 optimisation between [QCUT,QGAM] = [ 11.51, 23.22] = [ 37.09,150.92] Ry 
 Optimized for a Real-space Cutoff    1.21 Angstroem

   l    n(q)    QCUT    max X(q) W(low)/X(q) W(high)/X(q)  e(spline) 
   0      8    11.508     6.761    0.57E-04    0.57E-04    0.35E-07
   0      8    11.508     1.642    0.14E-03    0.14E-03    0.91E-07
   1      8    11.508     3.519    0.20E-04    0.72E-04    0.47E-07
   1      8    11.508     2.150    0.27E-04    0.11E-03    0.89E-07
   2      7    11.508     2.976    0.19E-03    0.33E-03    0.16E-06
   2      7    11.508     1.494    0.14E-03    0.29E-03    0.14E-06
  PAW_PBE Li_sv_GW 25Mar2010            :
 energy of atom  1       EATOM= -200.9989
 kinetic energy error for atom=    0.0127 (will be added to EATOM!!)
  PAW_PBE P_GW 19Mar2012                :
 energy of atom  2       EATOM= -176.0430
 kinetic energy error for atom=    0.0011 (will be added to EATOM!!)
  PAW_PBE S_GW 19Mar2012                :
 energy of atom  3       EATOM= -276.8230
 kinetic energy error for atom=    0.0024 (will be added to EATOM!!)
  PAW_PBE Cl_GW 19Mar2012               :
 energy of atom  4       EATOM= -409.7259
 kinetic energy error for atom=    0.0030 (will be added to EATOM!!)
 
 
 POSCAR: Li24 P4 S20 Cl4
  positions in direct lattice
  velocities in cartesian coordinates
 exchange correlation table for  LEXCH =        8
   RHO(1)=    0.500       N(1)  =     2000
   RHO(2)=  100.500       N(2)  =     4000

 VTST: version 4.1, (05/19/21)

 CHAIN: initializing optimizer
 
 OPT: Using VASP Conjugate-Gradient optimizer
 CHAIN: Read ICHAIN            0
 
 POSCAR: Li24 P4 S20 Cl4
  positions in direct lattice
  velocities in cartesian coordinates
 


--------------------------------------------------------------------------------------------------------


 ion  position               nearest neighbor table
   1  0.993  0.184  0.197-
   2  0.954  0.833  0.818-
   3  0.027  0.199  0.780-
   4  0.020  0.678  0.306-
   5  0.220  0.199  0.973-
   6  0.182  0.833  0.046-
   7  0.803  0.184  0.007-
   8  0.694  0.678  0.980-
   9  0.302  0.977  0.330-
  10  0.325  0.028  0.675-
  11  0.670  0.977  0.698-
  12  0.685  0.030  0.315-
  13  0.201  0.691  0.491-
  14  0.194  0.324  0.517-
  15  0.708  0.778  0.520-
  16  0.829  0.301  0.462-
  17  0.241  0.480  0.759-
  18  0.321  0.539  0.172-
  19  0.772  0.470  0.228-  46 2.22
  20  0.828  0.539  0.679-
  21  0.483  0.324  0.806-
  22  0.480  0.778  0.292-
  23  0.538  0.301  0.171-
  24  0.509  0.691  0.799-
  25  0.511  0.485  0.489-  42 2.04  44 2.04  41 2.06  43 2.07
  26  0.498  0.995  0.003-  38 2.04  40 2.05  39 2.05  37 2.06
  27  0.007  0.506  0.993-  36 2.05  34 2.05  35 2.05  33 2.06
  28  0.997  0.995  0.502-  31 2.04  29 2.05  32 2.05  30 2.06
  29  0.120  0.880  0.630-  28 2.05
  30  0.122  0.126  0.391-  28 2.06
  31  0.881  0.876  0.372-  28 2.04
  32  0.865  0.113  0.619-  28 2.05
  33  0.888  0.637  0.112-  27 2.06
  34  0.883  0.385  0.871-  27 2.05
  35  0.121  0.643  0.879-  27 2.05
  36  0.129  0.385  0.117-  27 2.05
  37  0.609  0.126  0.878-  26 2.06
  38  0.628  0.876  0.119-  26 2.04
  39  0.381  0.113  0.135-  26 2.05
  40  0.370  0.880  0.881-  26 2.05
  41  0.633  0.608  0.367-  25 2.06
  42  0.638  0.371  0.613-  25 2.04
  43  0.387  0.608  0.613-  25 2.07
  44  0.387  0.371  0.363-  25 2.04
  45  0.737  0.751  0.753-
  46  0.763  0.241  0.237-  19 2.22
  47  0.247  0.751  0.263-
  48  0.258  0.250  0.742-
  49  0.015  0.037  0.985-
  50  0.007  0.502  0.495-
  51  0.512  0.961  0.489-
  52  0.505  0.502  0.993-
 
  LATTYP: Found a simple cubic cell.
 ALAT       =     9.6895115921
  
  Lattice vectors:
  
 A1 = (   9.6895115921,   0.0000000000,   0.0000000000)
 A2 = (   0.0000000000,   9.6895115921,   0.0000000000)
 A3 = (   0.0000000000,   0.0000000000,   9.6895115921)


Analysis of symmetry for initial positions (statically):
=====================================================================
 Subroutine PRICEL returns:
 Original cell was already a primitive cell.
 

 Routine SETGRP: Setting up the symmetry group for a 
 simple cubic supercell.


 Subroutine GETGRP returns: Found  2 space group operations
 (whereof  1 operations were pure point group operations)
 out of a pool of 48 trial point group operations.


The static configuration has the point symmetry C_1 .
 The point group associated with its full space group is C_1h.


Analysis of symmetry for dynamics (positions and initial velocities):
=====================================================================
 Subroutine PRICEL returns:
 Original cell was already a primitive cell.
 

 Routine SETGRP: Setting up the symmetry group for a 
 simple cubic supercell.


 Subroutine GETGRP returns: Found  2 space group operations
 (whereof  1 operations were pure point group operations)
 out of a pool of 48 trial point group operations.


The dynamic configuration has the point symmetry C_1 .
 The point group associated with its full space group is C_1h.


Analysis of structural, dynamic, and magnetic symmetry:
=====================================================================
 Subroutine PRICEL returns:
 Original cell was already a primitive cell.
 

 Routine SETGRP: Setting up the symmetry group for a 
 simple cubic supercell.


 Subroutine GETGRP returns: Found  2 space group operations
 (whereof  1 operations were pure point group operations)
 out of a pool of 48 trial point group operations.


The overall configuration has the point symmetry C_1 .
 The point group associated with its full space group is C_1h.


 Subroutine INISYM returns: Found  2 space group operations
 (whereof  1 operations are pure point group operations),
 and found     1 'primitive' translations


----------------------------------------------------------------------------------------

                                     Primitive cell                                     

  volume of cell :     909.7156

  direct lattice vectors                    reciprocal lattice vectors
     9.689511592  0.000000000  0.000000000     0.103204376  0.000000000  0.000000000
     0.000000000  9.689511592  0.000000000     0.000000000  0.103204376  0.000000000
     0.000000000  0.000000000  9.689511592     0.000000000  0.000000000  0.103204376

  length of vectors
     9.689511592  9.689511592  9.689511592     0.103204376  0.103204376  0.103204376

  position of ions in fractional coordinates (direct lattice)
     0.993410404  0.184019993  0.196649592
     0.954245468  0.832887619  0.817789496
     0.026844879  0.198532223  0.780409547
     0.020028319  0.678166036  0.305807471
     0.219634054  0.198532223  0.973198722
     0.182254105  0.832887619  0.045798133
     0.803394009  0.184019993  0.006633197
     0.694236130  0.678166036  0.980015282
     0.302014558  0.976795160  0.330396112
     0.324731041  0.027622384  0.675312560
     0.669647489  0.976795160  0.698029043
     0.684719091  0.030396798  0.315324510
     0.201244753  0.691459200  0.490839654
     0.193738645  0.324153765  0.517185452
     0.708057775  0.777607080  0.519613331
     0.829472053  0.301078936  0.462248989
     0.241086031  0.480140032  0.758957570
     0.321105676  0.538880847  0.172233147
     0.771706471  0.469617822  0.228337130
     0.827810454  0.538880847  0.678937925
     0.482858149  0.324153765  0.806304956
     0.480430270  0.777607080  0.291985826
     0.537794612  0.301078936  0.170571548
     0.509203947  0.691459200  0.798798848
     0.510550983  0.484714874  0.489492618
     0.497585652  0.995068813  0.003155466
     0.006778134  0.505908177  0.993265467
     0.996888135  0.995068813  0.502457950
     0.119536396  0.879662700  0.630268473
     0.122137788  0.125710434  0.390893714
     0.881491489  0.876411919  0.371569216
     0.864850273  0.113290995  0.618850850
     0.888329156  0.636862419  0.111714445
     0.883284534  0.385363060  0.870743579
     0.120691150  0.643195964  0.879352451
     0.129300022  0.385363060  0.116759067
     0.609149887  0.125710434  0.877905813
     0.628474385  0.876411919  0.118552112
     0.381192751  0.113290995  0.135193328
     0.369775128  0.879662700  0.880507205
     0.633353586  0.607510538  0.366690015
     0.637501754  0.371212759  0.613046835
     0.387388976  0.607797568  0.612654626
     0.386996766  0.371212759  0.362541847
     0.737431764  0.751120542  0.753262530
     0.763252938  0.240586149  0.236790663
     0.246781071  0.751120542  0.262611837
     0.258017813  0.250143520  0.742025788
     0.015140902  0.036862071  0.984902699
     0.007300780  0.502253563  0.495496538
     0.511527910  0.961201538  0.488515691
     0.504547063  0.502253563  0.992742821

  ion indices of the primitive-cell ions
   primitive index   ion index
                 1           1
                 2           2
                 3           3
                 4           4
                 5           5
                 6           6
                 7           7
                 8           8
                 9           9
                10          10
                11          11
                12          12
                13          13
                14          14
                15          15
                16          16
                17          17
                18          18
                19          19
                20          20
                21          21
                22          22
                23          23
                24          24
                25          25
                26          26
                27          27
                28          28
                29          29
                30          30
                31          31
                32          32
                33          33
                34          34
                35          35
                36          36
                37          37
                38          38
                39          39
                40          40
                41          41
                42          42
                43          43
                44          44
                45          45
                46          46
                47          47
                48          48
                49          49
                50          50
                51          51
                52          52

----------------------------------------------------------------------------------------

 
 
 KPOINTS: Automatic mesh                          

Automatic generation of k-mesh.
 Grid dimensions read from file:
 generate k-points for:    2    2    2

 Generating k-lattice:

  Cartesian coordinates                     Fractional coordinates (reciprocal lattice)
     0.051602188  0.000000000  0.000000000     0.500000000  0.000000000  0.000000000
     0.000000000  0.051602188  0.000000000     0.000000000  0.500000000  0.000000000
     0.000000000  0.000000000  0.051602188     0.000000000  0.000000000  0.500000000

  Length of vectors
     0.051602188  0.051602188  0.051602188

  Shift w.r.t. Gamma in fractional coordinates (k-lattice)
     0.500000000  0.500000000  0.500000000

 
 Subroutine IBZKPT returns following result:
 ===========================================
 
 Found      3 irreducible k-points:
 
 Following reciprocal coordinates:
            Coordinates               Weight
  0.250000  0.250000  0.250000      4.000000
 -0.250000  0.250000  0.250000      2.000000
 -0.250000 -0.250000  0.250000      2.000000
 
 Following cartesian coordinates:
            Coordinates               Weight
  0.025801  0.025801  0.025801      4.000000
 -0.025801  0.025801  0.025801      2.000000
 -0.025801 -0.025801  0.025801      2.000000
 


--------------------------------------------------------------------------------------------------------




 Dimension of arrays:
   k-points           NKPTS =      3   k-points in BZ     NKDIM =      3   number of bands    NBANDS=    176
   number of dos      NEDOS =    301   number of ions     NIONS =     52
   non local maximal  LDIM  =      6   non local SUM 2l+1 LMDIM =     18
   total plane-waves  NPLWV = 373248
   max r-space proj   IRMAX =   5725   max aug-charges    IRDMAX=  17514
   dimension x,y,z NGX =    72 NGY =   72 NGZ =   72
   dimension x,y,z NGXF=   144 NGYF=  144 NGZF=  144
   support grid    NGXF=   144 NGYF=  144 NGZF=  144
   ions per type =              24   4  20   4
   NGX,Y,Z   is equivalent  to a cutoff of  12.35, 12.35, 12.35 a.u.
   NGXF,Y,Z  is equivalent  to a cutoff of  24.71, 24.71, 24.71 a.u.

 SYSTEM =  unknown system                          
 POSCAR =  Li24 P4 S20 Cl4                         

 Startparameter for this run:
   NWRITE =      2    write-flag & timer
   PREC   = accu      normal or accurate (medium, high low for compatibility)
   ISTART =      0    job   : 0-new  1-cont  2-samecut
   ICHARG =      2    charge: 1-file 2-atom 10-const
   ISPIN  =      2    spin polarized calculation?
   LNONCOLLINEAR =      F non collinear calculations
   LSORBIT =      F    spin-orbit coupling
   INIWAV =      1    electr: 0-lowe 1-rand  2-diag
   LASPH  =      T    aspherical Exc in radial PAW
 Electronic Relaxation 1
   ENCUT  =  520.0 eV  38.22 Ry    6.18 a.u.  18.02 18.02 18.02*2*pi/ulx,y,z
   ENINI  =  520.0     initial cutoff
   ENAUG  = 1041.7 eV  augmentation charge cutoff
   NELM   =    100;   NELMIN=  2; NELMDL=-10     # of ELM steps 
   EDIFF  = 0.1E-05   stopping-criterion for ELM
   LREAL  =      T    real-space projection
   NLSPLINE    = F    spline interpolate recip. space projectors
   LCOMPAT=      F    compatible to vasp.4.4
   GGA_COMPAT  = T    GGA compatible to vasp.4.4-vasp.4.6
   LMAXPAW     = -100 max onsite density
   LMAXMIX     =    4 max onsite mixed and CHGCAR
   VOSKOWN=      0    Vosko Wilk Nusair interpolation
   ROPT   =   -0.00025  -0.00025  -0.00025  -0.00025
 Ionic relaxation
   EDIFFG = -.1E-02   stopping-criterion for IOM
   NSW    =   1000    number of steps for IOM
   NBLOCK =      1;   KBLOCK =   1000    inner block; outer block 
   IBRION =      2    ionic relax: 0-MD 1-quasi-New 2-CG
   NFREE  =      1    steps in history (QN), initial steepest desc. (CG)
   ISIF   =      2    stress and relaxation
   IWAVPR =     11    prediction:  0-non 1-charg 2-wave 3-comb
   ISYM   =      2    0-nonsym 1-usesym 2-fastsym
   LCORR  =      T    Harris-Foulkes like correction to forces

   POTIM  = 0.2000    time-step for ionic-motion
   TEIN   =    0.0    initial temperature
   TEBEG  =    0.0;   TEEND  =   0.0 temperature during run
   SMASS  =  -3.00    Nose mass-parameter (am)
   estimated Nose-frequenzy (Omega)   =  0.10E-29 period in steps = 0.31E+47 mass=  -0.215E-26a.u.
   SCALEE = 1.0000    scale energy and forces
   NPACO  =    256;   APACO  = 10.0  distance and # of slots for P.C.
   PSTRESS=    0.0 pullay stress

  Mass of Ions in am
   POMASS =   7.01 30.97 32.07 35.45
  Ionic Valenz
   ZVAL   =   3.00  5.00  6.00  7.00
  Atomic Wigner-Seitz radii
   RWIGS  =  -1.00 -1.00 -1.00 -1.00
  virtual crystal weights 
   VCA    =   1.00  1.00  1.00  1.00
   NELECT =     240.0000    total number of electrons
   NUPDOWN=      -1.0000    fix difference up-down

 DOS related values:
   EMIN   =  10.00;   EMAX   =-10.00  energy-range for DOS
   EFERMI =   0.00;   METHOD = LEGACY      
   ISMEAR =     0;   SIGMA  =   0.03  broadening in eV -4-tet -1-fermi 0-gaus

 Electronic relaxation 2 (details)
   IALGO  =     68    algorithm
   LDIAG  =      T    sub-space diagonalisation (order eigenvalues)
   LSUBROT=      F    optimize rotation matrix (better conditioning)
   TURBO    =      0    0=normal 1=particle mesh
   IRESTART =      0    0=no restart 2=restart with 2 vectors
   NREBOOT  =      0    no. of reboots
   NMIN     =      0    reboot dimension
   EREF     =   0.00    reference energy to select bands
   IMIX   =      4    mixing-type and parameters
     AMIX     =   0.40;   BMIX     =  1.00
     AMIX_MAG =   1.60;   BMIX_MAG =  1.00
     AMIN     =   0.10
     WC   =   100.;   INIMIX=   1;  MIXPRE=   1;  MAXMIX= -45

 Intra band minimization:
   WEIMIN = 0.0010     energy-eigenvalue tresh-hold
   EBREAK =  0.14E-08  absolut break condition
   DEPER  =   0.30     relativ break condition  

   TIME   =   0.40     timestep for ELM

  volume/ion in A,a.u.               =      17.49       118.06
  Fermi-wavevector in a.u.,A,eV,Ry     =   1.049970  1.984155 14.999552  1.102436
  Thomas-Fermi vector in A             =   2.184954
 
 Write flags
   LWAVE        =      F    write WAVECAR
   LDOWNSAMPLE  =      F    k-point downsampling of WAVECAR
   LCHARG       =      F    write CHGCAR
   LVTOT        =      F    write LOCPOT, total local potential
   LVHAR        =      F    write LOCPOT, Hartree potential only
   LELF         =      F    write electronic localiz. function (ELF)
   LORBIT       =      0    0 simple, 1 ext, 2 COOP (PROOUT), +10 PAW based schemes


 Dipole corrections
   LMONO  =      F    monopole corrections only (constant potential shift)
   LDIPOL =      F    correct potential (dipole corrections)
   IDIPOL =      0    1-x, 2-y, 3-z, 4-all directions 
   EPSILON=  1.0000000 bulk dielectric constant

 Exchange correlation treatment:
   GGA     =    PE    GGA type
   LEXCH   =     8    internal setting for exchange type
   LIBXC   =     F    Libxc                    
   VOSKOWN =     0    Vosko Wilk Nusair interpolation
   LHFCALC =     F    Hartree Fock is set to
   LHFONE  =     F    Hartree Fock one center treatment
   AEXX    =    0.0000 exact exchange contribution

 Linear response parameters
   LEPSILON=     F    determine dielectric tensor
   LRPA    =     F    only Hartree local field effects (RPA)
   LNABLA  =     F    use nabla operator in PAW spheres
   LVEL    =     F    velocity operator in full k-point grid
   CSHIFT  =0.1000    complex shift for real part using Kramers Kronig
   OMEGAMAX=  -1.0    maximum frequency
   DEG_THRESHOLD= 0.2000000E-02 threshold for treating states as degnerate
   RTIME   =   -0.100 relaxation time in fs
  (WPLASMAI=    0.000 imaginary part of plasma frequency in eV, 0.658/RTIME)
   DFIELD  = 0.0000000 0.0000000 0.0000000 field for delta impulse in time
 
  Optional k-point grid parameters
   LKPOINTS_OPT  =     F    use optional k-point grid
   KPOINTS_OPT_MODE=     1    mode for optional k-point grid
 
 Orbital magnetization related:
   ORBITALMAG=     F  switch on orbital magnetization
   LCHIMAG   =     F  perturbation theory with respect to B field
   DQ        =  0.001000  dq finite difference perturbation B field
   LLRAUG    =     F  two centre corrections for induced B field
   LBONE     =     F  B-component reconstruction in AE one-centre
   LVGVCALC  =     T  calculate vGv susceptibility
   LVGVAPPL  =     F  apply vGv susceptibility instead of pGv for G=0

 Random number generation:
   RANDOM_GENERATOR = DEFAULT
   PCG_SEED         = not used


--------------------------------------------------------------------------------------------------------


 conjugate gradient relaxation of ions
 charge density and potential will be updated during run
 spin polarized calculation
 RMM-DIIS sequential band-by-band and
  variant of blocked Davidson during initial phase
 perform sub-space diagonalisation
    before iterative eigenvector-optimisation
 modified Broyden-mixing scheme, WC =      100.0
 initial mixing is a Kerker type mixing with AMIX =  0.4000 and BMIX =      1.0000
 Hartree-type preconditioning will be used
 using additional bands           56
 real space projection scheme for non local part
 use partial core corrections
 calculate Harris-corrections to forces 
   (improved forces if not selfconsistent)
 use gradient corrections 
 use of overlap-Matrix (Vanderbilt PP)
 Gauss-broadening in eV      SIGMA  =   0.03


--------------------------------------------------------------------------------------------------------


  energy-cutoff  :      520.00
  volume of cell :      909.72
      direct lattice vectors                 reciprocal lattice vectors
     9.689511592  0.000000000  0.000000000     0.103204376  0.000000000  0.000000000
     0.000000000  9.689511592  0.000000000     0.000000000  0.103204376  0.000000000
     0.000000000  0.000000000  9.689511592     0.000000000  0.000000000  0.103204376

  length of vectors
     9.689511592  9.689511592  9.689511592     0.103204376  0.103204376  0.103204376


 
 k-points in units of 2pi/SCALE and weight: Automatic mesh                          
   0.02580109  0.02580109  0.02580109       0.500
  -0.02580109  0.02580109  0.02580109       0.250
  -0.02580109 -0.02580109  0.02580109       0.250
 
 k-points in reciprocal lattice and weights: Automatic mesh                          
   0.25000000  0.25000000  0.25000000       0.500
  -0.25000000  0.25000000  0.25000000       0.250
  -0.25000000 -0.25000000  0.25000000       0.250
 
 position of ions in fractional coordinates (direct lattice) 
   0.99341040  0.18401999  0.19664959
   0.95424547  0.83288762  0.81778950
   0.02684488  0.19853222  0.78040955
   0.02002832  0.67816604  0.30580747
   0.21963405  0.19853222  0.97319872
   0.18225411  0.83288762  0.04579813
   0.80339401  0.18401999  0.00663320
   0.69423613  0.67816604  0.98001528
   0.30201456  0.97679516  0.33039611
   0.32473104  0.02762238  0.67531256
   0.66964749  0.97679516  0.69802904
   0.68471909  0.03039680  0.31532451
   0.20124475  0.69145920  0.49083965
   0.19373864  0.32415376  0.51718545
   0.70805777  0.77760708  0.51961333
   0.82947205  0.30107894  0.46224899
   0.24108603  0.48014003  0.75895757
   0.32110568  0.53888085  0.17223315
   0.77170647  0.46961782  0.22833713
   0.82781045  0.53888085  0.67893793
   0.48285815  0.32415376  0.80630496
   0.48043027  0.77760708  0.29198583
   0.53779461  0.30107894  0.17057155
   0.50920395  0.69145920  0.79879885
   0.51055098  0.48471487  0.48949262
   0.49758565  0.99506881  0.00315547
   0.00677813  0.50590818  0.99326547
   0.99688814  0.99506881  0.50245795
   0.11953640  0.87966270  0.63026847
   0.12213779  0.12571043  0.39089371
   0.88149149  0.87641192  0.37156922
   0.86485027  0.11329100  0.61885085
   0.88832916  0.63686242  0.11171444
   0.88328453  0.38536306  0.87074358
   0.12069115  0.64319596  0.87935245
   0.12930002  0.38536306  0.11675907
   0.60914989  0.12571043  0.87790581
   0.62847438  0.87641192  0.11855211
   0.38119275  0.11329100  0.13519333
   0.36977513  0.87966270  0.88050721
   0.63335359  0.60751054  0.36669002
   0.63750175  0.37121276  0.61304683
   0.38738898  0.60779757  0.61265463
   0.38699677  0.37121276  0.36254185
   0.73743176  0.75112054  0.75326253
   0.76325294  0.24058615  0.23679066
   0.24678107  0.75112054  0.26261184
   0.25801781  0.25014352  0.74202579
   0.01514090  0.03686207  0.98490270
   0.00730078  0.50225356  0.49549654
   0.51152791  0.96120154  0.48851569
   0.50454706  0.50225356  0.99274282
 
 position of ions in cartesian coordinates  (Angst):
   9.62566162  1.78306386  1.90543850
   9.24617252  8.07027424  7.92398080
   0.26011376  1.92368028  7.56178735
   0.19406463  6.57109767  2.96312503
   2.12814672  1.92368028  9.42982030
   1.76595327  8.07027424  0.44376154
   7.78449556  1.78306386  0.06427244
   6.72680903  6.57109767  9.49586944
   2.92637356  9.46466802  3.20137696
   3.14648519  0.26764741  6.54344888
   6.48855710  9.46466802  6.76356050
   6.63459357  0.29453013  3.05534050
   1.94996337  6.69990194  4.75599651
   1.87723285  3.14089166  5.01127444
   6.86073402  7.53463282  5.03479940
   8.03717908  2.91730784  4.47896694
   2.33600589  4.65232240  7.35392818
   3.11135717  5.22149222  1.66885507
   7.47745880  4.55036733  2.21247527
   8.02107899  5.22149222  6.57857690
   4.67865963  3.14089166  7.81270122
   4.65513467  7.53463282  2.82920005
   5.21096713  2.91730784  1.65275499
   4.93393755  6.69990194  7.73997069
   4.94698967  4.69665039  4.74294440
   4.82136194  9.64173080  0.03057492
   0.06567680  4.90200315  9.62425726
   9.65935914  9.64173080  4.86857213
   1.15824929  8.52350193  6.10699367
   1.18345551  1.21807270  3.78756917
   8.54122200  8.49200345  3.60032423
   8.37997675  1.09773441  5.99636248
   8.60747566  6.17088579  1.08245841
   8.55859573  3.73397984  8.43708000
   1.16943830  6.23225475  8.52049577
   1.25285406  3.73397984  1.13133833
   5.90236489  1.21807270  8.50647855
   6.08960984  8.49200345  1.14871207
   3.69357158  1.09773441  1.30995732
   3.58294039  8.52350193  8.53168477
   6.13688691  5.88648040  3.55304715
   6.17708063  3.59687033  5.94012441
   3.75360997  5.88926158  5.93632410
   3.74980965  3.59687033  3.51285343
   7.14535362  7.27799120  7.29874601
   7.39554819  2.33116228  2.29438587
   2.39118805  7.27799120  2.54458044
   2.50006659  2.42376853  7.18986748
   0.14670794  0.35717547  9.54322612
   0.07074099  4.86659172  4.80111945
   4.95645561  9.31357345  4.73347845
   4.88881461  4.86659172  9.61919308
 


--------------------------------------------------------------------------------------------------------


 k-point   1 :   0.2500 0.2500 0.2500  plane waves:   24468
 k-point   2 :  -0.2500 0.2500 0.2500  plane waves:   24468
 k-point   3 :  -0.2500-0.2500 0.2500  plane waves:   24468

 maximum and minimum number of plane-waves per node :       784      745

 maximum number of plane-waves:     24468
 maximum index in each direction: 
   IXMAX=   18   IYMAX=   18   IZMAX=   17
   IXMIN=  -18   IYMIN=  -18   IZMIN=  -18


 real space projection operators:
  total allocation   :      28098.58 KBytes
  max/ min on nodes  :       1174.05        732.67


 parallel 3D FFT for wavefunctions:
    minimum data exchange during FFTs selected (reduces bandwidth)
 parallel 3D FFT for charge:
    minimum data exchange during FFTs selected (reduces bandwidth)


 total amount of memory used by VASP MPI-rank0    46948. kBytes
=======================================================================

   base      :      30000. kBytes
   nonlr-proj:       6465. kBytes
   fftplans  :       1747. kBytes
   grid      :       5278. kBytes
   one-center:         62. kBytes
   wavefun   :       3396. kBytes
 
     INWAV:  cpu time      0.0000: real time      0.0000
 Broyden mixing: mesh for mixing (old mesh)
   NGX = 37   NGY = 37   NGZ = 37
  (NGX  =144   NGY  =144   NGZ  =144)
  gives a total of  50653 points

 initial charge density was supplied:
 charge density of overlapping atoms calculated
 number of electron     240.0000000 magnetization      52.0000000
 keeping initial charge density in first step


--------------------------------------------------------------------------------------------------------


 Maximum index for non-local projection operator          552
 Maximum index for augmentation-charges          794 (set IRDMAX)


--------------------------------------------------------------------------------------------------------


 First call to EWALD:  gamma=   0.183
 Maximum number of real-space cells 3x 3x 3
 Maximum number of reciprocal cells 3x 3x 3

    FEWALD:  cpu time      0.0031: real time      0.0037


--------------------------------------- Ionic step        1  -------------------------------------------




--------------------------------------- Iteration      1(   1)  ---------------------------------------


    POTLOK:  cpu time      0.0661: real time      0.0753
    SETDIJ:  cpu time      0.4076: real time      0.4154
     EDDAV:  cpu time      1.6682: real time      1.7483
       DOS:  cpu time      0.0020: real time      0.0037
    --------------------------------------------
      LOOP:  cpu time      2.1440: real time      2.2426

 eigenvalue-minimisations  :  2336
 total energy-change (2. order) : 0.1582574E+04  (-0.1136423E+05)
 number of electron     240.0000000 magnetization      52.0000000
 augmentation part      240.0000000 magnetization      52.0000000

 Free energy of the ion-electron system (eV)
  ---------------------------------------------------
  alpha Z        PSCENC =       298.39819455
  Ewald energy   TEWEN  =     -8776.40450867
  -Hartree energ DENC   =     -2129.91992722
  -exchange      EXHF   =         0.00000000
  -V(xc)+E(xc)   XCENC  =       533.85537431
  PAW double counting   =      8141.38806575    -8271.61346273
  entropy T*S    EENTRO =        -0.00707247
  eigenvalues    EBANDS =      -916.26245734
  atomic energy  EATOM  =     12703.13999606
  Solvation  Ediel_sol  =         0.00000000
  ---------------------------------------------------
  free energy    TOTEN  =      1582.57420224 eV

  energy without entropy =     1582.58127471  energy(sigma->0) =     1582.57773848


--------------------------------------------------------------------------------------------------------




--------------------------------------- Iteration      1(   2)  ---------------------------------------


     EDDAV:  cpu time      1.9594: real time      1.9928
       DOS:  cpu time      0.0004: real time      0.0004
    --------------------------------------------
      LOOP:  cpu time      1.9598: real time      1.9932

 eigenvalue-minimisations  :  2904
 total energy-change (2. order) :-0.1638849E+04  (-0.1540302E+04)
 number of electron     240.0000000 magnetization      52.0000000
 augmentation part      240.0000000 magnetization      52.0000000

 Free energy of the ion-electron system (eV)
  ---------------------------------------------------
  alpha Z        PSCENC =       298.39819455
  Ewald energy   TEWEN  =     -8776.40450867
  -Hartree energ DENC   =     -2129.91992722
  -exchange      EXHF   =         0.00000000
  -V(xc)+E(xc)   XCENC  =       533.85537431
  PAW double counting   =      8141.38806575    -8271.61346273
  entropy T*S    EENTRO =        -0.00000000
  eigenvalues    EBANDS =     -2555.11868127
  atomic energy  EATOM  =     12703.13999606
  Solvation  Ediel_sol  =         0.00000000
  ---------------------------------------------------
  free energy    TOTEN  =       -56.27494923 eV

  energy without entropy =      -56.27494923  energy(sigma->0) =      -56.27494923


--------------------------------------------------------------------------------------------------------




--------------------------------------- Iteration      1(   3)  ---------------------------------------


     EDDAV:  cpu time      1.9244: real time      1.9430
       DOS:  cpu time      0.0005: real time      0.0005
    --------------------------------------------
      LOOP:  cpu time      1.9249: real time      1.9435

 eigenvalue-minimisations  :  2856
 total energy-change (2. order) :-0.1724308E+03  (-0.1704133E+03)
 number of electron     240.0000000 magnetization      52.0000000
 augmentation part      240.0000000 magnetization      52.0000000

 Free energy of the ion-electron system (eV)
  ---------------------------------------------------
  alpha Z        PSCENC =       298.39819455
  Ewald energy   TEWEN  =     -8776.40450867
  -Hartree energ DENC   =     -2129.91992722
  -exchange      EXHF   =         0.00000000
  -V(xc)+E(xc)   XCENC  =       533.85537431
  PAW double counting   =      8141.38806575    -8271.61346273
  entropy T*S    EENTRO =        -0.00000000
  eigenvalues    EBANDS =     -2727.54948987
  atomic energy  EATOM  =     12703.13999606
  Solvation  Ediel_sol  =         0.00000000
  ---------------------------------------------------
  free energy    TOTEN  =      -228.70575782 eV

  energy without entropy =     -228.70575782  energy(sigma->0) =     -228.70575782


--------------------------------------------------------------------------------------------------------




--------------------------------------- Iteration      1(   4)  ---------------------------------------


     EDDAV:  cpu time      2.2873: real time      2.3075
       DOS:  cpu time      0.0006: real time      0.0006
    --------------------------------------------
      LOOP:  cpu time      2.2879: real time      2.3081

 eigenvalue-minimisations  :  3504
 total energy-change (2. order) :-0.1296109E+02  (-0.1293479E+02)
 number of electron     240.0000000 magnetization      52.0000000
 augmentation part      240.0000000 magnetization      52.0000000

 Free energy of the ion-electron system (eV)
  ---------------------------------------------------
  alpha Z        PSCENC =       298.39819455
  Ewald energy   TEWEN  =     -8776.40450867
  -Hartree energ DENC   =     -2129.91992722
  -exchange      EXHF   =         0.00000000
  -V(xc)+E(xc)   XCENC  =       533.85537431
  PAW double counting   =      8141.38806575    -8271.61346273
  entropy T*S    EENTRO =        -0.00000000
  eigenvalues    EBANDS =     -2740.51057814
  atomic energy  EATOM  =     12703.13999606
  Solvation  Ediel_sol  =         0.00000000
  ---------------------------------------------------
  free energy    TOTEN  =      -241.66684609 eV

  energy without entropy =     -241.66684609  energy(sigma->0) =     -241.66684609


--------------------------------------------------------------------------------------------------------




--------------------------------------- Iteration      1(   5)  ---------------------------------------


     EDDAV:  cpu time      2.2714: real time      2.3137
       DOS:  cpu time      0.0004: real time      0.0004
    --------------------------------------------
      LOOP:  cpu time      2.2718: real time      2.3141

 eigenvalue-minimisations  :  3416
 total energy-change (2. order) :-0.3066428E+00  (-0.3065235E+00)
 number of electron     240.0000000 magnetization      52.0000000
 augmentation part      240.0000000 magnetization      52.0000000

 Free energy of the ion-electron system (eV)
  ---------------------------------------------------
  alpha Z        PSCENC =       298.39819455
  Ewald energy   TEWEN  =     -8776.40450867
  -Hartree energ DENC   =     -2129.91992722
  -exchange      EXHF   =         0.00000000
  -V(xc)+E(xc)   XCENC  =       533.85537431
  PAW double counting   =      8141.38806575    -8271.61346273
  entropy T*S    EENTRO =        -0.00000000
  eigenvalues    EBANDS =     -2740.81722090
  atomic energy  EATOM  =     12703.13999606
  Solvation  Ediel_sol  =         0.00000000
  ---------------------------------------------------
  free energy    TOTEN  =      -241.97348885 eV

  energy without entropy =     -241.97348885  energy(sigma->0) =     -241.97348885


--------------------------------------------------------------------------------------------------------




--------------------------------------- Iteration      1(   6)  ---------------------------------------


     EDDAV:  cpu time      2.2617: real time      2.3069
       DOS:  cpu time      0.0005: real time      0.0005
    --------------------------------------------
      LOOP:  cpu time      2.2622: real time      2.3075

 eigenvalue-minimisations  :  3464
 total energy-change (2. order) :-0.1096205E-01  (-0.1096079E-01)
 number of electron     240.0000000 magnetization      52.0000000
 augmentation part      240.0000000 magnetization      52.0000000

 Free energy of the ion-electron system (eV)
  ---------------------------------------------------
  alpha Z        PSCENC =       298.39819455
  Ewald energy   TEWEN  =     -8776.40450867
  -Hartree energ DENC   =     -2129.91992722
  -exchange      EXHF   =         0.00000000
  -V(xc)+E(xc)   XCENC  =       533.85537431
  PAW double counting   =      8141.38806575    -8271.61346273
  entropy T*S    EENTRO =        -0.00000000
  eigenvalues    EBANDS =     -2740.82818294
  atomic energy  EATOM  =     12703.13999606
  Solvation  Ediel_sol  =         0.00000000
  ---------------------------------------------------
  free energy    TOTEN  =      -241.98445090 eV

  energy without entropy =     -241.98445090  energy(sigma->0) =     -241.98445090


--------------------------------------------------------------------------------------------------------




--------------------------------------- Iteration      1(   7)  ---------------------------------------


     EDDAV:  cpu time      2.2625: real time      2.2814
       DOS:  cpu time      0.0004: real time      0.0004
    --------------------------------------------
      LOOP:  cpu time      2.2629: real time      2.2818

 eigenvalue-minimisations  :  3472
 total energy-change (2. order) :-0.4306212E-03  (-0.4305965E-03)
 number of electron     240.0000000 magnetization      52.0000000
 augmentation part      240.0000000 magnetization      52.0000000

 Free energy of the ion-electron system (eV)
  ---------------------------------------------------
  alpha Z        PSCENC =       298.39819455
  Ewald energy   TEWEN  =     -8776.40450867
  -Hartree energ DENC   =     -2129.91992722
  -exchange      EXHF   =         0.00000000
  -V(xc)+E(xc)   XCENC  =       533.85537431
  PAW double counting   =      8141.38806575    -8271.61346273
  entropy T*S    EENTRO =        -0.00000000
  eigenvalues    EBANDS =     -2740.82861357
  atomic energy  EATOM  =     12703.13999606
  Solvation  Ediel_sol  =         0.00000000
  ---------------------------------------------------
  free energy    TOTEN  =      -241.98488152 eV

  energy without entropy =     -241.98488152  energy(sigma->0) =     -241.98488152


--------------------------------------------------------------------------------------------------------




--------------------------------------- Iteration      1(   8)  ---------------------------------------


     EDDAV:  cpu time      2.4754: real time      2.5461
       DOS:  cpu time      0.0004: real time      0.0004
    --------------------------------------------
      LOOP:  cpu time      2.4758: real time      2.5465

 eigenvalue-minimisations  :  3416
 total energy-change (2. order) :-0.2566513E-04  (-0.2566461E-04)
 number of electron     240.0000000 magnetization      52.0000000
 augmentation part      240.0000000 magnetization      52.0000000

 Free energy of the ion-electron system (eV)
  ---------------------------------------------------
  alpha Z        PSCENC =       298.39819455
  Ewald energy   TEWEN  =     -8776.40450867
  -Hartree energ DENC   =     -2129.91992722
  -exchange      EXHF   =         0.00000000
  -V(xc)+E(xc)   XCENC  =       533.85537431
  PAW double counting   =      8141.38806575    -8271.61346273
  entropy T*S    EENTRO =        -0.00000000
  eigenvalues    EBANDS =     -2740.82863923
  atomic energy  EATOM  =     12703.13999606
  Solvation  Ediel_sol  =         0.00000000
  ---------------------------------------------------
  free energy    TOTEN  =      -241.98490718 eV

  energy without entropy =     -241.98490718  energy(sigma->0) =     -241.98490718


--------------------------------------------------------------------------------------------------------




--------------------------------------- Iteration      1(   9)  ---------------------------------------


     EDDAV:  cpu time      2.2233: real time      2.2424
       DOS:  cpu time      0.0004: real time      0.0004
    --------------------------------------------
      LOOP:  cpu time      2.2237: real time      2.2428

 eigenvalue-minimisations  :  3400
 total energy-change (2. order) :-0.1673901E-05  (-0.1673477E-05)
 number of electron     240.0000000 magnetization      52.0000000
 augmentation part      240.0000000 magnetization      52.0000000

 Free energy of the ion-electron system (eV)
  ---------------------------------------------------
  alpha Z        PSCENC =       298.39819455
  Ewald energy   TEWEN  =     -8776.40450867
  -Hartree energ DENC   =     -2129.91992722
  -exchange      EXHF   =         0.00000000
  -V(xc)+E(xc)   XCENC  =       533.85537431
  PAW double counting   =      8141.38806575    -8271.61346273
  entropy T*S    EENTRO =        -0.00000000
  eigenvalues    EBANDS =     -2740.82864090
  atomic energy  EATOM  =     12703.13999606
  Solvation  Ediel_sol  =         0.00000000
  ---------------------------------------------------
  free energy    TOTEN  =      -241.98490886 eV

  energy without entropy =     -241.98490886  energy(sigma->0) =     -241.98490886


--------------------------------------------------------------------------------------------------------




--------------------------------------- Iteration      1(  10)  ---------------------------------------


     EDDAV:  cpu time      1.4523: real time      1.4666
       DOS:  cpu time      0.0005: real time      0.0005
    CHARGE:  cpu time      0.1381: real time      0.1719
    MIXING:  cpu time      0.0016: real time      0.0027
    --------------------------------------------
      LOOP:  cpu time      1.5925: real time      1.6417

 eigenvalue-minimisations  :  1960
 total energy-change (2. order) :-0.7750896E-07  (-0.7797131E-07)
 number of electron     240.0000001 magnetization      27.3713264
 augmentation part        1.4943883 magnetization      27.8127463

 Broyden mixing:
  rms(total) = 0.64692E+01    rms(broyden)= 0.64690E+01
  rms(prec ) = 0.67119E+01
  weight for this iteration     100.00

 Free energy of the ion-electron system (eV)
  ---------------------------------------------------
  alpha Z        PSCENC =       298.39819455
  Ewald energy   TEWEN  =     -8776.40450867
  -Hartree energ DENC   =     -2129.91992722
  -exchange      EXHF   =         0.00000000
  -V(xc)+E(xc)   XCENC  =       533.85537431
  PAW double counting   =      8141.38806575    -8271.61346273
  entropy T*S    EENTRO =        -0.00000000
  eigenvalues    EBANDS =     -2740.82864098
  atomic energy  EATOM  =     12703.13999606
  Solvation  Ediel_sol  =         0.00000000
  ---------------------------------------------------
  free energy    TOTEN  =      -241.98490893 eV

  energy without entropy =     -241.98490893  energy(sigma->0) =     -241.98490893


--------------------------------------------------------------------------------------------------------




--------------------------------------- Iteration      1(  11)  ---------------------------------------


    POTLOK:  cpu time      0.0585: real time      0.0607
    SETDIJ:  cpu time      0.3980: real time      0.4017
    EDDIAG:  cpu time      0.2757: real time      0.2780
  RMM-DIIS:  cpu time      0.8704: real time      0.8797
    ORTHCH:  cpu time      0.0543: real time      0.0554
       DOS:  cpu time      0.0004: real time      0.0004
    CHARGE:  cpu time      0.1345: real time      0.1588
    MIXING:  cpu time      0.0011: real time      0.0021
    --------------------------------------------
      LOOP:  cpu time      1.7928: real time      1.8369

 eigenvalue-minimisations  :  2112
 total energy-change (2. order) : 0.6786936E+01  (-0.4884008E+01)
 number of electron     240.0000001 magnetization      16.3903178
 augmentation part        1.7042381 magnetization      16.5760713

 Broyden mixing:
  rms(total) = 0.33169E+01    rms(broyden)= 0.33168E+01
  rms(prec ) = 0.34321E+01
  weight for this iteration     100.00

 eigenvalues of (default mixing * dielectric matrix)
  average eigenvalue GAMMA=   0.7264
  0.7264

 Free energy of the ion-electron system (eV)
  ---------------------------------------------------
  alpha Z        PSCENC =       298.39819455
  Ewald energy   TEWEN  =     -8776.40450867
  -Hartree energ DENC   =     -2178.96862979
  -exchange      EXHF   =         0.00000000
  -V(xc)+E(xc)   XCENC  =       542.47843821
  PAW double counting   =      8935.74320060    -9072.11226021
  entropy T*S    EENTRO =        -0.00000000
  eigenvalues    EBANDS =     -2687.47240367
  atomic energy  EATOM  =     12703.13999606
  Solvation  Ediel_sol  =         0.00000000
  ---------------------------------------------------
  free energy    TOTEN  =      -235.19797293 eV

  energy without entropy =     -235.19797293  energy(sigma->0) =     -235.19797293


--------------------------------------------------------------------------------------------------------




--------------------------------------- Iteration      1(  12)  ---------------------------------------


    POTLOK:  cpu time      0.0527: real time      0.0540
    SETDIJ:  cpu time      0.4065: real time      0.4083
    EDDIAG:  cpu time      0.2681: real time      0.2699
  RMM-DIIS:  cpu time      0.9163: real time      0.9242
    ORTHCH:  cpu time      0.0514: real time      0.0520
       DOS:  cpu time      0.0004: real time      0.0004
    CHARGE:  cpu time      0.1328: real time      0.1634
    MIXING:  cpu time      0.0011: real time      0.0011
    --------------------------------------------
      LOOP:  cpu time      1.8292: real time      1.8733

 eigenvalue-minimisations  :  2213
 total energy-change (2. order) :-0.2066410E+02  (-0.2298170E+01)
 number of electron     240.0000001 magnetization       0.8684181
 augmentation part        1.8080439 magnetization       1.2124090

 Broyden mixing:
  rms(total) = 0.20597E+01    rms(broyden)= 0.20597E+01
  rms(prec ) = 0.21193E+01
  weight for this iteration     100.00

 eigenvalues of (default mixing * dielectric matrix)
  average eigenvalue GAMMA=   1.1265
  1.5843  0.6686

 Free energy of the ion-electron system (eV)
  ---------------------------------------------------
  alpha Z        PSCENC =       298.39819455
  Ewald energy   TEWEN  =     -8776.40450867
  -Hartree energ DENC   =     -2204.01815791
  -exchange      EXHF   =         0.00000000
  -V(xc)+E(xc)   XCENC  =       536.06125552
  PAW double counting   =      9294.47177387    -9434.50467536
  entropy T*S    EENTRO =        -0.00000000
  eigenvalues    EBANDS =     -2673.00595475
  atomic energy  EATOM  =     12703.13999606
  Solvation  Ediel_sol  =         0.00000000
  ---------------------------------------------------
  free energy    TOTEN  =      -255.86207669 eV

  energy without entropy =     -255.86207669  energy(sigma->0) =     -255.86207669


--------------------------------------------------------------------------------------------------------




--------------------------------------- Iteration      1(  13)  ---------------------------------------


    POTLOK:  cpu time      0.0520: real time      0.0532
    SETDIJ:  cpu time      0.4050: real time      0.4067
    EDDIAG:  cpu time      0.2662: real time      0.2677
  RMM-DIIS:  cpu time      0.9789: real time      1.0074
    ORTHCH:  cpu time      0.0518: real time      0.0524
       DOS:  cpu time      0.0005: real time      0.0005
    CHARGE:  cpu time      0.1290: real time      0.1491
    MIXING:  cpu time      0.0010: real time      0.0011
    --------------------------------------------
      LOOP:  cpu time      1.8844: real time      1.9381

 eigenvalue-minimisations  :  2185
 total energy-change (2. order) :-0.2497151E+01  (-0.8762814E+00)
 number of electron     240.0000001 magnetization      -1.8826927
 augmentation part        1.9092274 magnetization      -1.7726284

 Broyden mixing:
  rms(total) = 0.70844E+00    rms(broyden)= 0.70844E+00
  rms(prec ) = 0.74055E+00
  weight for this iteration     100.00

 eigenvalues of (default mixing * dielectric matrix)
  average eigenvalue GAMMA=   1.3041
  2.5186  0.7426  0.6510

 Free energy of the ion-electron system (eV)
  ---------------------------------------------------
  alpha Z        PSCENC =       298.39819455
  Ewald energy   TEWEN  =     -8776.40450867
  -Hartree energ DENC   =     -2231.57671271
  -exchange      EXHF   =         0.00000000
  -V(xc)+E(xc)   XCENC  =       537.51611035
  PAW double counting   =      9788.95286610    -9932.86027031
  entropy T*S    EENTRO =        -0.00000000
  eigenvalues    EBANDS =     -2645.52490342
  atomic energy  EATOM  =     12703.13999606
  Solvation  Ediel_sol  =         0.00000000
  ---------------------------------------------------
  free energy    TOTEN  =      -258.35922805 eV

  energy without entropy =     -258.35922805  energy(sigma->0) =     -258.35922805


--------------------------------------------------------------------------------------------------------




--------------------------------------- Iteration      1(  14)  ---------------------------------------


    POTLOK:  cpu time      0.0526: real time      0.0540
    SETDIJ:  cpu time      0.4085: real time      0.4100
    EDDIAG:  cpu time      0.2679: real time      0.2695
  RMM-DIIS:  cpu time      1.1588: real time      1.1689
    ORTHCH:  cpu time      0.0510: real time      0.0513
       DOS:  cpu time      0.0004: real time      0.0004
    CHARGE:  cpu time      0.1323: real time      0.1589
    MIXING:  cpu time      0.0011: real time      0.0011
    --------------------------------------------
      LOOP:  cpu time      2.0727: real time      2.1141

 eigenvalue-minimisations  :  2777
 total energy-change (2. order) :-0.1879798E+00  (-0.2000254E+00)
 number of electron     240.0000001 magnetization      -0.8764595
 augmentation part        1.8825426 magnetization      -0.8504223

 Broyden mixing:
  rms(total) = 0.32131E+00    rms(broyden)= 0.32130E+00
  rms(prec ) = 0.35730E+00
  weight for this iteration     100.00

 eigenvalues of (default mixing * dielectric matrix)
  average eigenvalue GAMMA=   1.2720
  2.6262  1.1746  0.6911  0.5961

 Free energy of the ion-electron system (eV)
  ---------------------------------------------------
  alpha Z        PSCENC =       298.39819455
  Ewald energy   TEWEN  =     -8776.40450867
  -Hartree energ DENC   =     -2233.84054515
  -exchange      EXHF   =         0.00000000
  -V(xc)+E(xc)   XCENC  =       538.04596953
  PAW double counting   =      9876.66424175   -10021.44155336
  entropy T*S    EENTRO =        -0.00000000
  eigenvalues    EBANDS =     -2643.10900259
  atomic energy  EATOM  =     12703.13999606
  Solvation  Ediel_sol  =         0.00000000
  ---------------------------------------------------
  free energy    TOTEN  =      -258.54720787 eV

  energy without entropy =     -258.54720787  energy(sigma->0) =     -258.54720787


--------------------------------------------------------------------------------------------------------




--------------------------------------- Iteration      1(  15)  ---------------------------------------


    POTLOK:  cpu time      0.0526: real time      0.0537
    SETDIJ:  cpu time      0.4037: real time      0.4053
    EDDIAG:  cpu time      0.2663: real time      0.2681
  RMM-DIIS:  cpu time      0.9614: real time      0.9696
    ORTHCH:  cpu time      0.0512: real time      0.0515
       DOS:  cpu time      0.0004: real time      0.0004
    CHARGE:  cpu time      0.1121: real time      0.1382
    MIXING:  cpu time      0.0015: real time      0.0015
    --------------------------------------------
      LOOP:  cpu time      1.8493: real time      1.8882

 eigenvalue-minimisations  :  2293
 total energy-change (2. order) : 0.3078827E-01  (-0.3471362E-01)
 number of electron     240.0000001 magnetization      -0.2399869
 augmentation part        1.8329941 magnetization      -0.2146645

 Broyden mixing:
  rms(total) = 0.66447E-01    rms(broyden)= 0.66446E-01
  rms(prec ) = 0.79002E-01
  weight for this iteration     100.00

 eigenvalues of (default mixing * dielectric matrix)
  average eigenvalue GAMMA=   1.2740
  2.5344  1.5870  0.9565  0.6865  0.6056

 Free energy of the ion-electron system (eV)
  ---------------------------------------------------
  alpha Z        PSCENC =       298.39819455
  Ewald energy   TEWEN  =     -8776.40450867
  -Hartree energ DENC   =     -2229.28314732
  -exchange      EXHF   =         0.00000000
  -V(xc)+E(xc)   XCENC  =       537.67457177
  PAW double counting   =      9846.26617667    -9990.83807007
  entropy T*S    EENTRO =        -0.00000000
  eigenvalues    EBANDS =     -2647.46963259
  atomic energy  EATOM  =     12703.13999606
  Solvation  Ediel_sol  =         0.00000000
  ---------------------------------------------------
  free energy    TOTEN  =      -258.51641960 eV

  energy without entropy =     -258.51641960  energy(sigma->0) =     -258.51641960


--------------------------------------------------------------------------------------------------------




--------------------------------------- Iteration      1(  16)  ---------------------------------------


    POTLOK:  cpu time      0.0524: real time      0.0534
    SETDIJ:  cpu time      0.4074: real time      0.4089
    EDDIAG:  cpu time      0.2676: real time      0.2692
  RMM-DIIS:  cpu time      0.9679: real time      0.9766
    ORTHCH:  cpu time      0.0529: real time      0.0536
       DOS:  cpu time      0.0004: real time      0.0004
    CHARGE:  cpu time      0.1174: real time      0.1307
    MIXING:  cpu time      0.0012: real time      0.0012
    --------------------------------------------
      LOOP:  cpu time      1.8672: real time      1.8941

 eigenvalue-minimisations  :  2321
 total energy-change (2. order) :-0.2039408E-01  (-0.1057102E-01)
 number of electron     240.0000001 magnetization      -0.1108489
 augmentation part        1.8108496 magnetization      -0.0970115

 Broyden mixing:
  rms(total) = 0.30668E-01    rms(broyden)= 0.30667E-01
  rms(prec ) = 0.37348E-01
  weight for this iteration     100.00

 eigenvalues of (default mixing * dielectric matrix)
  average eigenvalue GAMMA=   1.2487
  2.4502  1.9297  1.0444  0.6221  0.7004  0.7450

 Free energy of the ion-electron system (eV)
  ---------------------------------------------------
  alpha Z        PSCENC =       298.39819455
  Ewald energy   TEWEN  =     -8776.40450867
  -Hartree energ DENC   =     -2228.83343206
  -exchange      EXHF   =         0.00000000
  -V(xc)+E(xc)   XCENC  =       537.59309856
  PAW double counting   =      9834.14238016    -9978.47511902
  entropy T*S    EENTRO =        -0.00000000
  eigenvalues    EBANDS =     -2648.09742326
  atomic energy  EATOM  =     12703.13999606
  Solvation  Ediel_sol  =         0.00000000
[...]
  0.004  -0.004  -0.000  -0.001   0.005   0.001  -0.000   0.000   0.000  -0.000  -0.000   0.000   0.000   0.000
 -0.002   0.002   0.000  -0.000   0.001   0.006  -0.000   0.000   0.000   0.000  -0.000   0.000   0.000  -0.000
 -0.008   0.008   0.000   0.003  -0.004   0.005   0.000  -0.000   0.000   0.000  -0.000  -0.000  -0.000  -0.000
 -0.007   0.007   0.000  -0.003  -0.004  -0.004  -0.000  -0.000  -0.000  -0.000   0.000   0.000  -0.000  -0.000
  0.002  -0.001  -0.000  -0.006   0.003   0.007  -0.000   0.000   0.000  -0.000   0.000   0.000   0.000  -0.000
  0.010  -0.010  -0.000  -0.004   0.006   0.005  -0.000   0.000   0.000  -0.000  -0.000   0.000   0.000   0.000
  0.022  -0.022  -0.000  -0.000   0.004  -0.008  -0.000   0.000  -0.000  -0.000  -0.000  -0.000   0.000   0.000
 total augmentation occupancy for first ion, spin component:           2
  0.000  -0.000   0.000  -0.000   0.000   0.000  -0.000   0.000   0.000  -0.000  -0.000  -0.000   0.000  -0.000
 -0.000  -0.000  -0.000   0.000  -0.000  -0.000   0.000   0.000  -0.000   0.000   0.000   0.000  -0.000   0.000
  0.000  -0.000  -0.000   0.000  -0.000   0.000   0.000   0.000   0.000  -0.000  -0.000  -0.000  -0.000   0.000
 -0.000   0.000   0.000  -0.000   0.000   0.000  -0.000  -0.000  -0.000   0.000  -0.000  -0.000  -0.000  -0.000
  0.000  -0.000  -0.000   0.000  -0.000   0.000   0.000  -0.000   0.000  -0.000  -0.000   0.000   0.000  -0.000
  0.000  -0.000   0.000   0.000   0.000   0.000   0.000   0.000   0.000  -0.000  -0.000   0.000  -0.000  -0.000
 -0.000   0.000   0.000  -0.000   0.000   0.000  -0.000  -0.000   0.000   0.000  -0.000   0.000  -0.000  -0.000
  0.000   0.000   0.000  -0.000  -0.000   0.000  -0.000  -0.000   0.000  -0.000  -0.000   0.000   0.000  -0.000
  0.000  -0.000   0.000  -0.000   0.000   0.000   0.000   0.000   0.000  -0.000  -0.000   0.000   0.000  -0.000
 -0.000   0.000  -0.000   0.000  -0.000  -0.000   0.000  -0.000  -0.000   0.000   0.000  -0.000  -0.000   0.000
 -0.000   0.000  -0.000  -0.000  -0.000  -0.000  -0.000  -0.000  -0.000   0.000  -0.000  -0.000  -0.000   0.000
 -0.000   0.000  -0.000  -0.000   0.000   0.000   0.000   0.000   0.000  -0.000  -0.000  -0.000  -0.000  -0.000
  0.000  -0.000  -0.000  -0.000   0.000  -0.000  -0.000   0.000   0.000  -0.000  -0.000  -0.000   0.000  -0.000
 -0.000   0.000   0.000  -0.000  -0.000  -0.000  -0.000  -0.000  -0.000   0.000   0.000  -0.000  -0.000  -0.000


------------------------ aborting loop because EDIFF is reached ----------------------------------------


    CHARGE:  cpu time      0.1072: real time      0.1084
    FORLOC:  cpu time      0.0037: real time      0.0037
    FORNL :  cpu time      0.3056: real time      0.3077
    STRESS:  cpu time      0.9037: real time      0.9098
    FORCOR:  cpu time      0.0497: real time      0.0500
    FORHAR:  cpu time      0.0087: real time      0.0087
    MIXING:  cpu time      0.0007: real time      0.0007
    OFIELD:  cpu time      0.0000: real time      0.0000

 ---------------------------------------------------------------------------------------------

         DFTD3 V3.0 Rev 1        
 Edisp (eV)  -13.44537

 E6    (eV) :    -8.2850
 E8    (eV) :    -5.1603
 % E8        : 38.38
    FORVDW:  cpu time      0.2918: real time      0.2937

  FORCE on cell =-STRESS in cart. coord.  units (eV):
  Direction    XX          YY          ZZ          XY          YZ          ZX
  --------------------------------------------------------------------------------------
  Alpha Z   298.39819   298.39819   298.39819
  Ewald   -2909.82941 -2956.92322 -2909.82941   -16.64784    16.64784    13.26879
  Hartree   753.35792   724.72557   753.35792    -6.23174     6.23174    -0.75883
  E(xc)    -947.73814  -947.75915  -947.73814    -0.02140     0.02140     0.00110
  Local   -1547.41572 -1476.47803 -1547.41572    21.92800   -21.92800    -6.45220
  n-local  1481.00652  1481.92326  1481.05801    -0.87211    -0.17714     0.01261
  augment  -356.66639  -356.80013  -356.66638     0.07474    -0.07198     0.08978
  Kinetic  3243.59646  3246.12864  3243.66589    -0.84692    -0.68734    -3.49447
  Fock        0.00000     0.00000     0.00000     0.00000     0.00000     0.00000
  vdW       -14.25169   -14.26725   -14.25169     0.00833    -0.00833     0.02551
  -------------------------------------------------------------------------------------
  Total       0.51821    -1.05211     0.51821    -1.31855     1.31855     2.69222
  in kB       0.91267    -1.85297     0.91267    -2.32221     2.32221     4.74150
  external pressure =       -0.01 kB  Pullay stress =        0.00 kB


 VOLUME and BASIS-vectors are now :
 -----------------------------------------------------------------------------
  energy-cutoff  :      520.00
  volume of cell :      909.72
      direct lattice vectors                 reciprocal lattice vectors
     9.689511592  0.000000000  0.000000000     0.103204376  0.000000000  0.000000000
     0.000000000  9.689511592  0.000000000     0.000000000  0.103204376  0.000000000
     0.000000000  0.000000000  9.689511592     0.000000000  0.000000000  0.103204376

  length of vectors
     9.689511592  9.689511592  9.689511592     0.103204376  0.103204376  0.103204376


 FORCES acting on ions
    electron-ion (+dipol)            ewald-force                    non-local-force                 convergence-correction
 -----------------------------------------------------------------------------------------------
   -.506E+01 0.781E+01 -.255E+01   0.419E+01 -.705E+01 0.387E+01   0.861E+00 -.763E+00 -.132E+01   0.123E-03 0.223E-04 -.439E-04
   0.413E+01 -.686E+01 -.126E+02   -.508E+01 0.553E+01 0.111E+02   0.953E+00 0.133E+01 0.144E+01   -.340E-04 -.517E-04 -.929E-04
   0.281E+01 -.779E+00 0.646E+01   -.213E+01 0.148E+01 -.720E+01   -.682E+00 -.708E+00 0.740E+00   -.512E-04 -.448E-04 0.323E-04
   0.256E+01 0.422E+01 -.316E+01   -.202E+01 -.312E+01 0.190E+01   -.541E+00 -.110E+01 0.126E+01   -.604E-04 0.141E-04 -.890E-04
   -.646E+01 -.779E+00 -.281E+01   0.720E+01 0.148E+01 0.213E+01   -.740E+00 -.708E+00 0.682E+00   -.323E-04 -.448E-04 0.512E-04
   0.126E+02 -.686E+01 -.413E+01   -.111E+02 0.553E+01 0.508E+01   -.144E+01 0.133E+01 -.953E+00   0.929E-04 -.517E-04 0.340E-04
   0.255E+01 0.781E+01 0.506E+01   -.387E+01 -.705E+01 -.419E+01   0.132E+01 -.763E+00 -.861E+00   0.439E-04 0.223E-04 -.123E-03
   0.316E+01 0.422E+01 -.256E+01   -.190E+01 -.312E+01 0.202E+01   -.126E+01 -.110E+01 0.541E+00   0.890E-04 0.141E-04 0.604E-04
   -.218E+01 -.963E+01 -.750E+01   0.798E+00 0.902E+01 0.642E+01   0.138E+01 0.609E+00 0.109E+01   -.662E-05 -.329E-05 -.118E-03
   -.140E+02 -.265E+01 0.140E+02   0.126E+02 0.361E+01 -.126E+02   0.139E+01 -.953E+00 -.139E+01   -.116E-03 -.368E-04 0.116E-03
   0.750E+01 -.963E+01 0.218E+01   -.642E+01 0.902E+01 -.798E+00   -.109E+01 0.609E+00 -.138E+01   0.118E-03 -.329E-05 0.662E-05
   0.490E+01 -.988E+01 -.490E+01   -.381E+01 0.108E+02 0.381E+01   -.110E+01 -.912E+00 0.110E+01   -.810E-04 -.156E-04 0.810E-04
   0.642E+01 0.451E+01 -.728E+01   -.498E+01 -.350E+01 0.654E+01   -.144E+01 -.101E+01 0.725E+00   -.580E-04 0.562E-04 0.847E-04
   0.155E+01 -.381E+01 0.337E+01   -.823E+00 0.249E+01 -.286E+01   -.722E+00 0.132E+01 -.502E+00   0.356E-04 0.325E-04 -.288E-04
   -.532E+01 0.160E+01 -.203E+01   0.606E+01 -.255E+01 0.279E+01   -.747E+00 0.955E+00 -.757E+00   0.235E-05 0.117E-03 -.209E-04
   -.515E+01 -.699E+01 0.237E-02   0.386E+01 0.564E+01 -.595E+00   0.129E+01 0.135E+01 0.592E+00   -.134E-03 -.122E-05 0.673E-04
   0.259E+01 -.410E+01 -.259E+01   -.246E+01 0.321E+01 0.246E+01   -.122E+00 0.887E+00 0.122E+00   -.438E-04 -.191E-04 0.438E-04
   -.490E+01 -.138E+01 0.844E+01   0.377E+01 0.216E+01 -.736E+01   0.113E+01 -.774E+00 -.108E+01   0.134E-04 -.403E-04 -.709E-05
   -.212E+00 0.112E+01 0.212E+00   0.248E+00 -.191E+01 -.248E+00   -.337E-01 0.782E+00 0.337E-01   0.907E-04 0.681E-04 -.907E-04
   -.844E+01 -.138E+01 0.490E+01   0.736E+01 0.216E+01 -.377E+01   0.108E+01 -.774E+00 -.113E+01   0.709E-05 -.402E-04 -.134E-04
   -.337E+01 -.381E+01 -.155E+01   0.286E+01 0.249E+01 0.823E+00   0.502E+00 0.132E+01 0.722E+00   0.288E-04 0.325E-04 -.356E-04
   0.203E+01 0.160E+01 0.532E+01   -.279E+01 -.255E+01 -.606E+01   0.757E+00 0.955E+00 0.747E+00   0.209E-04 0.117E-03 -.235E-05
   -.237E-02 -.699E+01 0.515E+01   0.595E+00 0.564E+01 -.386E+01   -.592E+00 0.135E+01 -.129E+01   -.673E-04 -.122E-05 0.134E-03
   0.728E+01 0.451E+01 -.642E+01   -.654E+01 -.350E+01 0.498E+01   -.725E+00 -.101E+01 0.144E+01   -.847E-04 0.562E-04 0.580E-04
   0.274E+01 0.167E+02 -.274E+01   -.251E+01 -.177E+02 0.251E+01   -.229E+00 0.985E+00 0.229E+00   0.168E-03 -.292E-04 -.168E-03
   -.374E+01 0.420E+01 0.320E+01   0.363E+01 -.452E+01 -.302E+01   0.111E+00 0.319E+00 -.180E+00   -.150E-03 -.384E-04 0.431E-04
   -.252E+01 0.251E+01 0.252E+01   0.271E+01 -.242E+01 -.271E+01   -.189E+00 -.792E-01 0.189E+00   0.178E-05 0.229E-04 -.178E-05
   -.320E+01 0.420E+01 0.374E+01   0.302E+01 -.452E+01 -.363E+01   0.180E+00 0.319E+00 -.111E+00   -.431E-04 -.384E-04 0.150E-03
   -.398E+02 0.396E+02 -.430E+02   0.424E+02 -.424E+02 0.466E+02   -.267E+01 0.277E+01 -.368E+01   0.925E-05 -.151E-03 0.358E-03
   -.437E+02 -.420E+02 0.337E+02   0.472E+02 0.453E+02 -.364E+02   -.344E+01 -.321E+01 0.273E+01   0.147E-03 0.100E-03 -.802E-04
   0.191E+02 0.321E+02 0.618E+02   -.215E+02 -.347E+02 -.660E+02   0.244E+01 0.264E+01 0.425E+01   -.139E-03 -.251E-03 -.108E-03
   0.505E+02 -.373E+02 -.382E+02   -.540E+02 0.403E+02 0.407E+02   0.342E+01 -.297E+01 -.249E+01   -.153E-03 0.161E-03 0.203E-03
   0.270E+02 -.631E+02 -.270E+02   -.292E+02 0.672E+02 0.292E+02   0.221E+01 -.410E+01 -.221E+01   -.211E-03 0.260E-03 0.211E-03
   0.538E+02 0.260E+02 0.417E+02   -.577E+02 -.283E+02 -.450E+02   0.392E+01 0.231E+01 0.329E+01   0.309E-04 -.233E-03 -.213E-03
   -.388E+02 -.439E+02 0.388E+02   0.415E+02 0.471E+02 -.415E+02   -.273E+01 -.314E+01 0.273E+01   0.251E-04 0.254E-03 -.251E-04
   -.417E+02 0.260E+02 -.538E+02   0.450E+02 -.283E+02 0.577E+02   -.329E+01 0.231E+01 -.392E+01   0.213E-03 -.233E-03 -.309E-04
   -.337E+02 -.420E+02 0.437E+02   0.364E+02 0.453E+02 -.472E+02   -.273E+01 -.321E+01 0.344E+01   0.802E-04 0.100E-03 -.147E-03
   -.618E+02 0.321E+02 -.191E+02   0.660E+02 -.347E+02 0.215E+02   -.425E+01 0.264E+01 -.244E+01   0.108E-03 -.251E-03 0.139E-03
   0.382E+02 -.373E+02 -.505E+02   -.407E+02 0.403E+02 0.540E+02   0.249E+01 -.297E+01 -.342E+01   -.203E-03 0.161E-03 0.153E-03
   0.430E+02 0.396E+02 0.398E+02   -.466E+02 -.424E+02 -.424E+02   0.368E+01 0.277E+01 0.267E+01   -.358E-03 -.151E-03 -.925E-05
   -.411E+02 -.219E+02 0.411E+02   0.443E+02 0.246E+02 -.443E+02   -.315E+01 -.280E+01 0.315E+01   -.768E-04 -.686E-04 0.768E-04
   -.275E+02 0.584E+02 -.380E+02   0.304E+02 -.618E+02 0.411E+02   -.281E+01 0.339E+01 -.310E+01   0.403E-03 -.240E-03 -.139E-04
   0.330E+02 -.409E+02 -.330E+02   -.359E+02 0.451E+02 0.359E+02   0.297E+01 -.414E+01 -.297E+01   -.616E-04 0.267E-03 0.616E-04
   0.380E+02 0.584E+02 0.275E+02   -.411E+02 -.618E+02 -.304E+02   0.310E+01 0.339E+01 0.281E+01   0.139E-04 -.240E-03 -.403E-03
   -.149E+02 -.418E+00 -.883E+01   0.153E+02 0.441E+00 0.897E+01   -.352E+00 -.233E-01 -.133E+00   0.193E-03 0.379E-04 0.191E-04
   0.893E+01 0.726E+01 -.893E+01   -.915E+01 -.764E+01 0.915E+01   0.223E+00 0.375E+00 -.223E+00   -.297E-03 0.184E-03 0.297E-03
   0.883E+01 -.418E+00 0.149E+02   -.897E+01 0.441E+00 -.153E+02   0.133E+00 -.233E-01 0.352E+00   -.191E-04 0.379E-04 -.193E-03
   -.168E+02 0.861E+01 0.168E+02   0.172E+02 -.910E+01 -.172E+02   -.358E+00 0.496E+00 0.358E+00   -.180E-03 -.248E-03 0.180E-03
   0.166E+02 0.472E+02 -.166E+02   -.168E+02 -.479E+02 0.168E+02   0.203E+00 0.770E+00 -.203E+00   0.403E-03 0.540E-03 -.403E-03
   0.150E+01 0.333E+01 -.331E+01   -.159E+01 -.338E+01 0.338E+01   0.101E+00 0.496E-01 -.654E-01   -.381E-04 0.533E-04 0.158E-03
   0.210E+02 -.426E+02 -.210E+02   -.213E+02 0.431E+02 0.213E+02   0.300E+00 -.483E+00 -.300E+00   0.429E-03 -.419E-03 -.429E-03
   0.331E+01 0.333E+01 -.150E+01   -.338E+01 -.338E+01 0.159E+01   0.654E-01 0.496E-01 -.101E+00   -.158E-03 0.533E-04 0.381E-04
 -----------------------------------------------------------------------------------------------
   0.123E+01 -.672E+00 -.123E+01   0.131E-12 -.600E-13 -.155E-13   -.122E+01 0.674E+00 0.122E+01   0.347E-04 -.163E-03 -.347E-04
 
 
 POSITION                                       TOTAL-FORCE (eV/Angst)
 -----------------------------------------------------------------------------------
      9.62566      1.78289      1.90543        -0.000051     -0.000194      0.000081
      9.24610      8.07038      7.92416        -0.000176      0.000059      0.000161
      0.26005      1.92366      7.56180        -0.000036      0.000006     -0.000052
      0.19409      6.57085      2.96326         0.000029     -0.000237      0.000077
      2.12813      1.92366      9.42989         0.000052      0.000006      0.000036
      1.76577      8.07038      0.44383        -0.000161      0.000059      0.000176
      7.78451      1.78289      0.06427        -0.000081     -0.000194      0.000051
      6.72667      6.57085      9.49584        -0.000077     -0.000237     -0.000029
      2.92642      9.46465      3.20156        -0.000036     -0.000012      0.000225
      3.14659      0.26763      6.54334         0.000084      0.000050     -0.000084
      6.48837      9.46465      6.76351        -0.000225     -0.000012      0.000036
      6.63456      0.29452      3.05538        -0.000012      0.000093      0.000012
      1.94995      6.69998      4.75609         0.000114      0.000118      0.000090
      1.87739      3.14104      5.01130         0.000193      0.000080      0.000034
      6.86092      7.53464      5.03475         0.000230     -0.000092     -0.000061
      8.03747      2.91739      4.47891         0.000350      0.000033     -0.000115
      2.33597      4.65229      7.35396        -0.000036     -0.000043      0.000036
      3.11135      5.22147      1.66886        -0.000063      0.000070      0.000025
      7.47756      4.55039      2.21237         0.000100      0.000014     -0.000100
      8.02108      5.22147      6.57859        -0.000025      0.000070      0.000063
      4.67864      3.14104      7.81255        -0.000034      0.000080     -0.000193
      4.65519      7.53464      2.82901         0.000061     -0.000092     -0.000230
      5.21102      2.91739      1.65247         0.000115      0.000033     -0.000350
      4.93385      6.69998      7.73999        -0.000090      0.000118     -0.000114
      4.94705      4.69659      4.74288         0.000149      0.000219     -0.000149
      4.82135      9.64175      0.03058         0.000034      0.000092     -0.000038
      0.06566      4.90206      9.62428         0.000048     -0.000016     -0.000048
      9.65936      9.64175      4.86859         0.000038      0.000092     -0.000034
      1.15825      8.52354      6.10711        -0.000014     -0.000047      0.000039
      1.18350      1.21819      3.78765        -0.000144     -0.000095      0.000113
      8.54131      8.49202      3.60017         0.000126      0.000095      0.000117
      8.37985      1.09772      5.99637        -0.000032     -0.000000      0.000002
      8.60750      6.17115      1.08243        -0.000242      0.000053      0.000242
      8.55848      3.73399      8.43713         0.000130      0.000073      0.000220
      1.16945      6.23232      8.52049         0.000011     -0.000275     -0.000011
      1.25280      3.73399      1.13145        -0.000220      0.000073     -0.000130
      5.90229      1.21819      8.50643        -0.000113     -0.000095      0.000144
      6.08977      8.49202      1.14862        -0.000117      0.000095     -0.000126
      3.69357      1.09772      1.31008        -0.000002     -0.000000      0.000032
      3.58283      8.52354      8.53168        -0.000039     -0.000047      0.000014
      6.13696      5.88647      3.55297        -0.000178     -0.000023      0.000178
      6.17719      3.59678      5.94008         0.000130     -0.000098      0.000025
      3.75362      5.88918      5.93631         0.000120     -0.000261     -0.000120
      3.74985      3.59678      3.51274        -0.000025     -0.000098     -0.000130
      7.14532      7.27799      7.29877        -0.000117     -0.000026     -0.000117
      7.39555      2.33114      2.29439         0.000105      0.000085     -0.000105
      2.39116      7.27799      2.54461         0.000117     -0.000026      0.000117
      2.50006      2.42370      7.18987        -0.000139      0.000147      0.000139
      0.14661      0.35695      9.54332         0.000104      0.000396     -0.000104
      0.07077      4.86657      4.80119        -0.000125      0.000051     -0.000062
      4.95638      9.31368      4.73355         0.000113     -0.000195     -0.000113
      4.88874      4.86657      9.61916         0.000062      0.000051      0.000125
 -----------------------------------------------------------------------------------
    total drift:                                0.007161      0.001999     -0.007148


--------------------------------------------------------------------------------------------------------



  FREE ENERGIE OF THE ION-ELECTRON SYSTEM (eV)
  ---------------------------------------------------
  free  energy   TOTEN  =      -271.99004327 eV

  energy  without entropy=     -271.99004327  energy(sigma->0) =     -271.99004327
 
 d Force = 0.7236893E-06[ 0.203E-06, 0.124E-05]  d Energy = 0.1547542E-05-0.824E-06
 d Force =-0.1845467E-01[-0.185E-01,-0.185E-01]  d Ewald  =-0.1845467E-01-0.509E-10


--------------------------------------------------------------------------------------------------------


    POTLOK:  cpu time      0.4605: real time      0.4623


--------------------------------------------------------------------------------------------------------


 stress matrix after NEB project (eV)
      0.51821     -1.31855      2.69222
     -1.31855     -1.05211      1.31855
      2.69222      1.31855      0.51821
  FORCES: max atom, RMS     0.000423    0.000213
  FORCE total and by dimension    0.001537    0.000396
  Stress total and by dimension    4.805668    2.692219
 Conjugate gradient step on ions:
 trial-energy change:   -0.000002  1 .order   -0.000001   -0.000001   -0.000000
  (g-gl).g = 0.635E-06      g.g   = 0.719E-06  gl.gl    = 0.909E-06
 g(Force)  = 0.719E-06   g(Stress)= 0.000E+00 ortho     = 0.837E-07
 gamma     =   0.69853
 trial     =   1.60161
 opt step  =   1.91347  (harmonic =   1.91347) maximal distance =0.00007288
 next E    =  -271.990042   (d E  =  -0.00000)


--------------------------------------------------------------------------------------------------------


  
 reached required accuracy - stopping structural energy minimisation
     LOOP+:  cpu time      6.2550: real time      6.3213
    4ORBIT:  cpu time      0.0000: real time      0.0000

 total amount of memory used by VASP MPI-rank0    46948. kBytes
=======================================================================

   base      :      30000. kBytes
   nonlr-proj:       6465. kBytes
   fftplans  :       1747. kBytes
   grid      :       5278. kBytes
   one-center:         62. kBytes
   wavefun   :       3396. kBytes
 
  
  
 General timing and accounting informations for this job:
 ========================================================
  
                  Total CPU time used (sec):      115.304
                            User time (sec):      113.606
                          System time (sec):        1.698
                         Elapsed time (sec):      125.050
  
                   Maximum memory used (kb):      394636.
                   Average memory used (kb):          N/A
  
                          Minor page faults:        75059
                          Major page faults:          139
                 Voluntary context switches:         7554
