<?xml version="1.0" encoding="ISO-8859-1"?>
<modeling>
 <generator>
  <i name="program" type="string">vasp </i>
  <i name="version" type="string">6.4.1  </i>
  <i name="subversion" type="string">05Apr23 (build Jun 07 2023 15:38:11) complex                          parallel </i>
  <i name="platform" type="string">LinuxIFC </i>
  <i name="date" type="string">2023 10 16 </i>
  <i name="time" type="string">22:46:17 </i>
 </generator>
 <incar>
  <i type="string" name="PREC">Accu</i>
  <i type="string" name="ALGO">F</i>
  <i type="logical" name="LDIAG"> T  </i>
  <i type="int" name="ISPIN">     2</i>
  <i type="int" name="NELM">   100</i>
  <i type="int" name="NELMDL">   -10</i>
  <i type="int" name="IBRION">     2</i>
  <i name="EDIFF">      0.00000100</i>
  <i name="EDIFFG">     -0.00100000</i>
  <i type="int" name="NSW">  1000</i>
  <i type="int" name="ISIF">     2</i>
  <i name="ENCUT">    520.00000000</i>
  <i name="POTIM">      0.20000000</i>
  <i type="string" name="LREAL">Auto</i>
  <i type="logical" name="LPLANE"> T  </i>
  <i type="int" name="ISMEAR">     0</i>
  <i name="SIGMA">      0.03000000</i>
  <i type="int" name="LMAXMIX">     4</i>
  <i type="logical" name="LWAVE"> F  </i>
  <i type="logical" name="LCHARG"> F  </i>
  <i type="logical" name="LASPH"> T  </i>
  <i type="string" name="GGA">PE</i>
  <i type="int" name="IVDW">    12</i>
 </incar>
 <primitive_cell>
  <structure name="primitive_cell" >
   <crystal>
    <varray name="basis" >
     <v>       9.68951159       0.00000000       0.00000000 </v>
     <v>       0.00000000       9.68951159       0.00000000 </v>
     <v>       0.00000000       0.00000000       9.68951159 </v>
    </varray>
    <i name="volume">    909.71563715 </i>
    <varray name="rec_basis" >
     <v>       0.10320438       0.00000000       0.00000000 </v>
     <v>       0.00000000       0.10320438       0.00000000 </v>
     <v>       0.00000000       0.00000000       0.10320438 </v>
    </varray>
   </crystal>
   <varray name="positions" >
    <v>       0.99341040       0.18401999       0.19664959 </v>
    <v>       0.95424547       0.83288762       0.81778950 </v>
    <v>       0.02684488       0.19853222       0.78040955 </v>
    <v>       0.02002832       0.67816604       0.30580747 </v>
    <v>       0.21963405       0.19853222       0.97319872 </v>
    <v>       0.18225411       0.83288762       0.04579813 </v>
    <v>       0.80339401       0.18401999       0.00663320 </v>
    <v>       0.69423613       0.67816604       0.98001528 </v>
    <v>       0.30201456       0.97679516       0.33039611 </v>
    <v>       0.32473104       0.02762238       0.67531256 </v>
    <v>       0.66964749       0.97679516       0.69802904 </v>
    <v>       0.68471909       0.03039680       0.31532451 </v>
    <v>       0.20124475       0.69145920       0.49083965 </v>
    <v>       0.19373864       0.32415376       0.51718545 </v>
    <v>       0.70805777       0.77760708       0.51961333 </v>
    <v>       0.82947205       0.30107894       0.46224899 </v>
    <v>       0.24108603       0.48014003       0.75895757 </v>
    <v>       0.32110568       0.53888085       0.17223315 </v>
    <v>       0.77170647       0.46961782       0.22833713 </v>
    <v>       0.82781045       0.53888085       0.67893793 </v>
    <v>       0.48285815       0.32415376       0.80630496 </v>
    <v>       0.48043027       0.77760708       0.29198583 </v>
    <v>       0.53779461       0.30107894       0.17057155 </v>
    <v>       0.50920395       0.69145920       0.79879885 </v>
    <v>       0.51055098       0.48471487       0.48949262 </v>
    <v>       0.49758565       0.99506881       0.00315547 </v>
    <v>       0.00677813       0.50590818       0.99326547 </v>
    <v>       0.99688814       0.99506881       0.50245795 </v>
    <v>       0.11953640       0.87966270       0.63026847 </v>
    <v>       0.12213779       0.12571043       0.39089371 </v>
    <v>       0.88149149       0.87641192       0.37156922 </v>
    <v>       0.86485027       0.11329100       0.61885085 </v>
    <v>       0.88832916       0.63686242       0.11171444 </v>
    <v>       0.88328453       0.38536306       0.87074358 </v>
    <v>       0.12069115       0.64319596       0.87935245 </v>
    <v>       0.12930002       0.38536306       0.11675907 </v>
    <v>       0.60914989       0.12571043       0.87790581 </v>
    <v>       0.62847438       0.87641192       0.11855211 </v>
    <v>       0.38119275       0.11329100       0.13519333 </v>
    <v>       0.36977513       0.87966270       0.88050721 </v>
    <v>       0.63335359       0.60751054       0.36669002 </v>
    <v>       0.63750175       0.37121276       0.61304683 </v>
    <v>       0.38738898       0.60779757       0.61265463 </v>
    <v>       0.38699677       0.37121276       0.36254185 </v>
    <v>       0.73743176       0.75112054       0.75326253 </v>
    <v>       0.76325294       0.24058615       0.23679066 </v>
    <v>       0.24678107       0.75112054       0.26261184 </v>
    <v>       0.25801781       0.25014352       0.74202579 </v>
    <v>       0.01514090       0.03686207       0.98490270 </v>
    <v>       0.00730078       0.50225356       0.49549654 </v>
    <v>       0.51152791       0.96120154       0.48851569 </v>
    <v>       0.50454706       0.50225356       0.99274282 </v>
   </varray>
  </structure>
  <varray name="primitive_index" >
   <v type="int" >        1 </v>
   <v type="int" >        2 </v>
   <v type="int" >        3 </v>
   <v type="int" >        4 </v>
   <v type="int" >        5 </v>
   <v type="int" >        6 </v>
   <v type="int" >        7 </v>
   <v type="int" >        8 </v>
   <v type="int" >        9 </v>
   <v type="int" >       10 </v>
   <v type="int" >       11 </v>
   <v type="int" >       12 </v>
   <v type="int" >       13 </v>
   <v type="int" >       14 </v>
   <v type="int" >       15 </v>
   <v type="int" >       16 </v>
   <v type="int" >       17 </v>
   <v type="int" >       18 </v>
   <v type="int" >       19 </v>
   <v type="int" >       20 </v>
   <v type="int" >       21 </v>
   <v type="int" >       22 </v>
   <v type="int" >       23 </v>
   <v type="int" >       24 </v>
   <v type="int" >       25 </v>
   <v type="int" >       26 </v>
   <v type="int" >       27 </v>
   <v type="int" >       28 </v>
   <v type="int" >       29 </v>
   <v type="int" >       30 </v>
   <v type="int" >       31 </v>
   <v type="int" >       32 </v>
   <v type="int" >       33 </v>
   <v type="int" >       34 </v>
   <v type="int" >       35 </v>
   <v type="int" >       36 </v>
   <v type="int" >       37 </v>
   <v type="int" >       38 </v>
   <v type="int" >       39 </v>
   <v type="int" >       40 </v>
   <v type="int" >       41 </v>
   <v type="int" >       42 </v>
   <v type="int" >       43 </v>
   <v type="int" >       44 </v>
   <v type="int" >       45 </v>
   <v type="int" >       46 </v>
   <v type="int" >       47 </v>
   <v type="int" >       48 </v>
   <v type="int" >       49 </v>
   <v type="int" >       50 </v>
   <v type="int" >       51 </v>
   <v type="int" >       52 </v>
  </varray>
 </primitive_cell>
 <kpoints>
  <generation param="Monkhorst-Pack">
   <v type="int" name="divisions">       2        2        2 </v>
   <v name="usershift">      0.00000000       0.00000000       0.00000000 </v>
   <v name="genvec1">      0.50000000       0.00000000       0.00000000 </v>
   <v name="genvec2">      0.00000000       0.50000000       0.00000000 </v>
   <v name="genvec3">      0.00000000       0.00000000       0.50000000 </v>
   <v name="shift">      0.50000000       0.50000000       0.50000000 </v>
  </generation>
  <varray name="kpointlist" >
   <v>       0.25000000       0.25000000       0.25000000 </v>
   <v>      -0.25000000       0.25000000       0.25000000 </v>
   <v>      -0.25000000      -0.25000000       0.25000000 </v>
  </varray>
  <varray name="weights" >
   <v>       0.50000000 </v>
   <v>       0.25000000 </v>
   <v>       0.25000000 </v>
  </varray>
 </kpoints>
 <parameters>
  <separator name="general" >
   <i type="string" name="SYSTEM">unknown system</i>
   <i type="logical" name="LCOMPAT"> F  </i>
  </separator>
  <separator name="electronic" >
   <i type="string" name="PREC">accu</i>
   <i name="ENMAX">    520.00000000</i>
   <i name="ENAUG">   1041.69900000</i>
   <i name="EDIFF">      0.00000100</i>
   <i type="int" name="IALGO">    68</i>
   <i type="int" name="IWAVPR">    11</i>
   <i type="int" name="NBANDS">   176</i>
   <i type="int" name="NBANDSLOW">    -1</i>
   <i type="int" name="NBANDSHIGH">    -1</i>
   <i name="NELECT">    240.00000000</i>
   <i type="int" name="TURBO">     0</i>
   <i type="int" name="IRESTART">     0</i>
   <i type="int" name="NREBOOT">     0</i>
   <i type="int" name="NMIN">     0</i>
   <i name="EREF">      0.00000000</i>
   <separator name="electronic smearing" >
    <i type="int" name="ISMEAR">     0</i>
    <i name="SIGMA">      0.03000000</i>
    <i name="KSPACING">      0.50000000</i>
    <i type="logical" name="KGAMMA"> T  </i>
    <i type="logical" name="KBLOWUP"> T  </i>
   </separator>
   <separator name="electronic projectors" >
    <i type="logical" name="LREAL"> T  </i>
    <v name="ROPT">     -0.00025000     -0.00025000     -0.00025000     -0.00025000</v>
    <i type="int" name="LMAXPAW">  -100</i>
    <i type="int" name="LMAXMIX">     4</i>
    <i type="logical" name="NLSPLINE"> F  </i>
   </separator>
   <separator name="electronic startup" >
    <i type="int" name="ISTART">     0</i>
    <i type="int" name="ICHARG">     2</i>
    <i type="int" name="INIWAV">     1</i>
   </separator>
   <separator name="electronic spin" >
    <i type="int" name="ISPIN">     2</i>
    <i type="logical" name="LNONCOLLINEAR"> F  </i>
    <v name="MAGMOM">      1.00000000      1.00000000      1.00000000      1.00000000      1.00000000      1.00000000      1.00000000      1.00000000      1.00000000      1.00000000      1.00000000      1.00000000      1.00000000      1.00000000      1.00000000      1.00000000      1.00000000      1.00000000      1.00000000      1.00000000
      1.00000000      1.00000000      1.00000000      1.00000000      1.00000000      1.00000000      1.00000000      1.00000000      1.00000000      1.00000000      1.00000000      1.00000000      1.00000000      1.00000000      1.00000000      1.00000000      1.00000000      1.00000000      1.00000000      1.00000000
      1.00000000      1.00000000      1.00000000      1.00000000      1.00000000      1.00000000      1.00000000      1.00000000      1.00000000      1.00000000      1.00000000      1.00000000</v>
    <i name="NUPDOWN">     -1.00000000</i>
    <i type="logical" name="LSORBIT"> F  </i>
    <v name="SAXIS">      0.00000000      0.00000000      1.00000000</v>
    <i type="logical" name="LSPIRAL"> F  </i>
    <v name="QSPIRAL">      0.00000000      0.00000000      0.00000000</v>
    <i type="logical" name="LZEROZ"> F  </i>
   </separator>
   <separator name="electronic exchange-correlation" >
    <i type="logical" name="LASPH"> T  </i>
    <i type="logical" name="LMETAGGA"> F  </i>
   </separator>
   <separator name="electronic convergence" >
    <i type="int" name="NELM">   100</i>
    <i type="int" name="NELMDL">   -10</i>
    <i type="int" name="NELMIN">     2</i>
    <i name="ENINI">    520.00000000</i>
    <separator name="electronic convergence detail" >
     <i type="logical" name="LDIAG"> T  </i>
     <i type="logical" name="LSUBROT"> F  </i>
     <i name="WEIMIN">      0.00100000</i>
     <i name="EBREAK">      0.00000000</i>
     <i name="DEPER">      0.30000000</i>
     <i type="int" name="NRMM">     4</i>
     <i name="TIME">      0.40000000</i>
    </separator>
   </separator>
   <separator name="electronic mixer" >
    <i name="AMIX">      0.40000000</i>
    <i name="BMIX">      1.00000000</i>
    <i name="AMIN">      0.10000000</i>
    <i name="AMIX_MAG">      1.60000000</i>
    <i name="BMIX_MAG">      1.00000000</i>
    <separator name="electronic mixer details" >
     <i type="int" name="IMIX">     4</i>
     <i type="logical" name="MIXFIRST"> F  </i>
     <i type="int" name="MAXMIX">   -45</i>
     <i name="WC">    100.00000000</i>
     <i type="int" name="INIMIX">     1</i>
     <i type="int" name="MIXPRE">     1</i>
     <i type="int" name="MREMOVE">     5</i>
    </separator>
   </separator>
   <separator name="electronic dipolcorrection" >
    <i type="logical" name="LDIPOL"> F  </i>
    <i type="logical" name="LMONO"> F  </i>
    <i type="int" name="IDIPOL">     0</i>
    <i name="EPSILON">      1.00000000</i>
    <v name="DIPOL">   -100.00000000   -100.00000000   -100.00000000</v>
    <i name="EFIELD">      0.00000000</i>
   </separator>
  </separator>
  <separator name="grids" >
   <i type="int" name="NGX">    72</i>
   <i type="int" name="NGY">    72</i>
   <i type="int" name="NGZ">    72</i>
   <i type="int" name="NGXF">   144</i>
   <i type="int" name="NGYF">   144</i>
   <i type="int" name="NGZF">   144</i>
   <i type="logical" name="ADDGRID"> F  </i>
  </separator>
  <separator name="ionic" >
   <i type="int" name="NSW">  1000</i>
   <i type="int" name="IBRION">     2</i>
   <i type="int" name="MDALGO">     0</i>
   <i type="int" name="ISIF">     2</i>
   <i name="PSTRESS">      0.00000000</i>
   <i name="EDIFFG">     -0.00100000</i>
   <i type="int" name="NFREE">     1</i>
   <i name="POTIM">      0.20000000</i>
   <i name="SMASS">     -3.00000000</i>
   <i name="SCALEE">      1.00000000</i>
  </separator>
  <separator name="ionic md" >
   <i name="TEBEG">      0.00010000</i>
   <i name="TEEND">      0.00010000</i>
   <i type="int" name="NBLOCK">     1</i>
   <i type="int" name="KBLOCK">  1000</i>
   <i type="int" name="NPACO">   256</i>
   <i name="APACO">     10.00000000</i>
  </separator>
  <separator name="symmetry" >
   <i type="int" name="ISYM">     2</i>
   <i name="SYMPREC">      0.00001000</i>
  </separator>
  <separator name="dos" >
   <i type="int" name="LORBIT">     0</i>
   <v name="RWIGS">     -1.00000000     -1.00000000     -1.00000000     -1.00000000</v>
   <i type="int" name="NEDOS">   301</i>
   <i name="EMIN">     10.00000000</i>
   <i name="EMAX">    -10.00000000</i>
   <i name="EFERMI">      0.00000000</i>
  </separator>
  <separator name="writing" >
   <i type="int" name="NWRITE">     2</i>
   <i type="logical" name="LWAVE"> F  </i>
   <i type="logical" name="LDOWNSAMPLE"> F  </i>
   <i type="logical" name="LCHARG"> F  </i>
   <i type="logical" name="LPARD"> F  </i>
   <i type="logical" name="LVTOT"> F  </i>
   <i type="logical" name="LVHAR"> F  </i>
   <i type="logical" name="LELF"> F  </i>
   <i type="logical" name="LOPTICS"> F  </i>
   <v name="STM">      0.00000000      0.00000000      0.00000000      0.00000000      0.00000000      0.00000000      0.00000000</v>
  </separator>
  <separator name="performance" >
   <i type="int" name="NPAR">     4</i>
   <i type="int" name="NSIM">     4</i>
   <i type="int" name="NBLK">    -1</i>
   <i type="logical" name="LPLANE"> T  </i>
   <i type="logical" name="LSCALAPACK"> T  </i>
   <i type="logical" name="LSCAAWARE"> F  </i>
   <i type="logical" name="LSCALU"> F  </i>
   <i type="logical" name="LASYNC"> F  </i>
   <i type="logical" name="LORBITALREAL"> F  </i>
  </separator>
  <separator name="miscellaneous" >
   <i type="int" name="IDIOT">     3</i>
   <i type="int" name="PHON_NSTRUCT">    -1</i>
   <i type="logical" name="LMUSIC"> F  </i>
   <v name="POMASS">      7.01000000     30.97400000     32.06600000     35.45300000</v>
   <v name="DARWINR">      0.00000000      0.00000000      0.00000000      0.00000000</v>
   <v name="DARWINV">      1.00000000      1.00000000      1.00000000      1.00000000</v>
   <i type="logical" name="LCORR"> T  </i>
  </separator>
  <i type="logical" name="GGA_COMPAT"> T  </i>
  <i type="logical" name="LBERRY"> F  </i>
  <i type="int" name="ICORELEVEL">     0</i>
  <i type="logical" name="LDAU"> F  </i>
  <i type="int" name="I_CONSTRAINED_M">     0</i>
  <separator name="electronic exchange-correlation" >
   <i type="string" name="GGA">PE</i>
   <i type="int" name="VOSKOWN">     0</i>
   <i type="logical" name="LHFCALC"> F  </i>
   <i type="string" name="PRECFOCK"></i>
   <i type="logical" name="LSYMGRAD"> F  </i>
   <i type="logical" name="LHFONE"> F  </i>
   <i type="logical" name="LRHFCALC"> F  </i>
   <i type="logical" name="LTHOMAS"> F  </i>
   <i type="logical" name="LMODELHF"> F  </i>
   <i type="logical" name="LFOCKACE"> F  </i>
   <i name="ENCUT4O">     -1.00000000</i>
   <i type="int" name="EXXOEP">     0</i>
   <i type="int" name="FOURORBIT">     0</i>
   <i name="AEXX">      0.00000000</i>
   <i name="HFALPHA">      0.00000000</i>
   <i name="MCALPHA">      0.00000000</i>
   <i name="ALDAX">      1.00000000</i>
   <i name="AGGAX">      1.00000000</i>
   <i name="ALDAC">      1.00000000</i>
   <i name="AGGAC">      1.00000000</i>
   <i type="int" name="NKREDX">     1</i>
   <i type="int" name="NKREDY">     1</i>
   <i type="int" name="NKREDZ">     1</i>
   <i type="logical" name="SHIFTRED"> F  </i>
   <i type="logical" name="ODDONLY"> F  </i>
   <i type="logical" name="EVENONLY"> F  </i>
   <i type="int" name="LMAXFOCK">     0</i>
   <i type="int" name="NMAXFOCKAE">     0</i>
   <i type="logical" name="LFOCKAEDFT"> F  </i>
   <i name="HFSCREEN">      0.00000000</i>
   <i name="HFSCREENC">      0.00000000</i>
   <i type="int" name="NBANDSGWLOW">     0</i>
  </separator>
  <separator name="vdW DFT" >
   <i type="logical" name="LUSE_VDW"> F  </i>
   <i type="int" name="IVDW_NL">     1</i>
   <i type="logical" name="LSPIN_VDW"> F  </i>
   <i name="Zab_VDW">     -0.84910000</i>
   <i name="PARAM1">      0.12340000</i>
   <i name="PARAM2">      1.00000000</i>
   <i name="PARAM3">      0.00000000</i>
  </separator>
  <separator name="model GW" >
   <i type="int" name="MODEL_GW">     0</i>
   <i name="MODEL_EPS0">     10.49671889</i>
   <i name="MODEL_ALPHA">      1.00000000</i>
  </separator>
  <separator name="linear response parameters" >
   <i type="logical" name="LEPSILON"> F  </i>
   <i type="logical" name="LRPA"> F  </i>
   <i type="logical" name="LNABLA"> F  </i>
   <i type="logical" name="LVEL"> F  </i>
   <i name="CSHIFT">      0.10000000</i>
   <i name="OMEGAMAX">     -1.00000000</i>
   <i name="DEG_THRESHOLD">      0.00200000</i>
   <i name="RTIME">     -0.10000000</i>
   <i name="WPLASMAI">      0.00000000</i>
   <v name="DFIELD">      0.00000000      0.00000000      0.00000000</v>
   <v name="WPLASMA">      0.00000000      0.00000000      0.00000000      0.00000000      0.00000000      0.00000000      0.00000000      0.00000000      0.00000000</v>
  </separator>
  <separator name="orbital magnetization" >
   <i type="logical" name="NUCIND"> F  </i>
   <v name="MAGPOS">      0.00000000      0.00000000      0.00000000</v>
   <i type="logical" name="LNICSALL"> T  </i>
   <i type="logical" name="ORBITALMAG"> F  </i>
   <i type="logical" name="LMAGBLOCH"> F  </i>
   <i type="logical" name="LCHIMAG"> F  </i>
   <i type="logical" name="LGAUGE"> T  </i>
   <i type="int" name="MAGATOM">     0</i>
   <v name="MAGDIPOL">      0.00000000      0.00000000      0.00000000</v>
   <v name="AVECCONST">      0.00000000      0.00000000      0.00000000</v>
  </separator>
  <separator name="response functions" >
   <i type="logical" name="LALL_IN_ONE"> F  </i>
   <i type="int" name="IALL_IN_ONE">    -1</i>
   <i type="int" name="NBANDS_WAVE">    -1</i>
   <i type="logical" name="LFINITE_TEMPERATURE"> F  </i>
   <i type="logical" name="LADDER"> F  </i>
   <i type="logical" name="LRPAFORCE"> F  </i>
   <i type="logical" name="LFXC"> F  </i>
   <i type="logical" name="LHARTREE"> T  </i>
   <i type="int" name="IBSE">     0</i>
   <v type="int" name="KPOINT">    -1     0     0     0</v>
   <i type="logical" name="LTCTC"> F  </i>
   <i type="logical" name="LTCTE"> F  </i>
   <i type="logical" name="LTETE"> F  </i>
   <i type="logical" name="LTRIPLET"> F  </i>
   <i type="logical" name="LFXCEPS"> F  </i>
   <i type="logical" name="LFXHEG"> F  </i>
   <i type="int" name="NATURALO">     2</i>
   <i type="logical" name="LHOLEGF"> F  </i>
   <i type="logical" name="L2ORDER"> F  </i>
   <i type="logical" name="LDMP1"> F  </i>
   <i type="logical" name="LMP2LT"> F  </i>
   <i type="logical" name="LSMP2LT"> F  </i>
   <i type="logical" name="LGWLF"> F  </i>
   <i name="ENCUTGW">     -1.60000002</i>
   <i name="ENCUTGWSOFT">     -1.60000002</i>
   <i name="ENCUTLF">     -1.00000000</i>
   <i type="logical" name="LESF_SPLINES"> F  </i>
   <i type="int" name="LMAXMP2">    -1</i>
   <i name="SCISSOR">      0.00000000</i>
   <i type="int" name="NOMEGA">     0</i>
   <i type="int" name="NOMEGAR">     0</i>
   <i type="int" name="NBANDSGW">    -1</i>
   <i type="int" name="NBANDSO">    -1</i>
   <i type="int" name="NBANDSV">    -1</i>
   <i type="int" name="NELMGW">     1</i>
   <i type="int" name="NELMHF">     1</i>
   <i type="int" name="DIM">     3</i>
   <i type="int" name="IESPILON">     4</i>
   <i type="int" name="ANTIRES">     0</i>
   <i name="OMEGAMAX">    -30.00000000</i>
   <i name="OMEGAMIN">    -30.00000000</i>
   <i name="OMEGATL">   -200.00000000</i>
   <i type="int" name="OMEGAGRID">     0</i>
   <i name="CSHIFT">     -0.10000000</i>
   <i type="logical" name="LSELFENERGY"> F  </i>
   <i type="logical" name="LSPECTRAL"> F  </i>
   <i type="logical" name="LSPECTRALGW"> F  </i>
   <i type="logical" name="LSINGLES"> F  </i>
   <i type="logical" name="LFERMIGW"> F  </i>
   <i type="logical" name="ODDONLYGW"> F  </i>
   <i type="logical" name="EVENONLYGW"> F  </i>
   <i type="int" name="NKREDLFX">     1</i>
   <i type="int" name="NKREDLFY">     1</i>
   <i type="int" name="NKREDLFZ">     1</i>
   <i type="int" name="MAXMEM">  2800</i>
   <i type="int" name="TELESCOPE">     0</i>
   <i type="int" name="NTAUPAR">    -1</i>
   <i type="int" name="NOMEGAPAR">    -1</i>
   <i name="DAMP_NEWTON">      0.80000001</i>
   <i name="LAMBDA">      1.00000000</i>
  </separator>
  <separator name="External order field" >
   <i name="OFIELD_KAPPA">      0.00000000</i>
   <v name="OFIELD_K">      0.00000000      0.00000000      0.00000000</v>
   <i name="OFIELD_Q6_NEAR">      0.00000000</i>
   <i name="OFIELD_Q6_FAR">      0.00000000</i>
   <i name="OFIELD_A">      0.00000000</i>
  </separator>
  <separator name="optional k-points parameters" >
   <i type="int" name="KPOINTS_OPT_MODE">     1</i>
   <i type="logical" name="LKPOINTS_OPT"> F  </i>
  </separator>
 </parameters>
 <atominfo>
  <atoms>      52 </atoms>
  <types>       4 </types>
  <array name="atoms" >
   <dimension dim="1">ion</dimension>
   <field type="string">element</field>
   <field type="int">atomtype</field>
   <set>
    <rc><c>Li</c><c>   1</c></rc>
    <rc><c>Li</c><c>   1</c></rc>
    <rc><c>Li</c><c>   1</c></rc>
    <rc><c>Li</c><c>   1</c></rc>
    <rc><c>Li</c><c>   1</c></rc>
    <rc><c>Li</c><c>   1</c></rc>
    <rc><c>Li</c><c>   1</c></rc>
    <rc><c>Li</c><c>   1</c></rc>
    <rc><c>Li</c><c>   1</c></rc>
    <rc><c>Li</c><c>   1</c></rc>
    <rc><c>Li</c><c>   1</c></rc>
    <rc><c>Li</c><c>   1</c></rc>
    <rc><c>Li</c><c>   1</c></rc>
    <rc><c>Li</c><c>   1</c></rc>
    <rc><c>Li</c><c>   1</c></rc>
    <rc><c>Li</c><c>   1</c></rc>
    <rc><c>Li</c><c>   1</c></rc>
    <rc><c>Li</c><c>   1</c></rc>
    <rc><c>Li</c><c>   1</c></rc>
    <rc><c>Li</c><c>   1</c></rc>
    <rc><c>Li</c><c>   1</c></rc>
    <rc><c>Li</c><c>   1</c></rc>
    <rc><c>Li</c><c>   1</c></rc>
    <rc><c>Li</c><c>   1</c></rc>
    <rc><c>P </c><c>   2</c></rc>
    <rc><c>P </c><c>   2</c></rc>
    <rc><c>P </c><c>   2</c></rc>
    <rc><c>P </c><c>   2</c></rc>
    <rc><c>S </c><c>   3</c></rc>
    <rc><c>S </c><c>   3</c></rc>
    <rc><c>S </c><c>   3</c></rc>
    <rc><c>S </c><c>   3</c></rc>
    <rc><c>S </c><c>   3</c></rc>
    <rc><c>S </c><c>   3</c></rc>
    <rc><c>S </c><c>   3</c></rc>
    <rc><c>S </c><c>   3</c></rc>
    <rc><c>S </c><c>   3</c></rc>
    <rc><c>S </c><c>   3</c></rc>
    <rc><c>S </c><c>   3</c></rc>
    <rc><c>S </c><c>   3</c></rc>
    <rc><c>S </c><c>   3</c></rc>
    <rc><c>S </c><c>   3</c></rc>
    <rc><c>S </c><c>   3</c></rc>
    <rc><c>S </c><c>   3</c></rc>
    <rc><c>S </c><c>   3</c></rc>
    <rc><c>S </c><c>   3</c></rc>
    <rc><c>S </c><c>   3</c></rc>
    <rc><c>S </c><c>   3</c></rc>
    <rc><c>Cl</c><c>   4</c></rc>
    <rc><c>Cl</c><c>   4</c></rc>
    <rc><c>Cl</c><c>   4</c></rc>
    <rc><c>Cl</c><c>   4</c></rc>
   </set>
  </array>
  <array name="atomtypes" >
   <dimension dim="1">type</dimension>
   <field type="int">atomspertype</field>
   <field type="string">element</field>
   <field>mass</field>
   <field>valence</field>
   <field type="string">pseudopotential</field>
   <set>
    <rc><c>  24</c><c>Li</c><c>      7.01000000</c><c>      3.00000000</c><c>  PAW_PBE Li_sv_GW 25Mar2010            </c></rc>
    <rc><c>   4</c><c>P </c><c>     30.97400000</c><c>      5.00000000</c><c>  PAW_PBE P_GW 19Mar2012                </c></rc>
    <rc><c>  20</c><c>S </c><c>     32.06600000</c><c>      6.00000000</c><c>  PAW_PBE S_GW 19Mar2012                </c></rc>
    <rc><c>   4</c><c>Cl</c><c>     35.45300000</c><c>      7.00000000</c><c>  PAW_PBE Cl_GW 19Mar2012               </c></rc>
   </set>
  </array>
 </atominfo>
 <structure name="initialpos" >
  <crystal>
   <varray name="basis" >
    <v>       9.68951159       0.00000000       0.00000000 </v>
    <v>       0.00000000       9.68951159       0.00000000 </v>
    <v>       0.00000000       0.00000000       9.68951159 </v>
   </varray>
   <i name="volume">    909.71563715 </i>
   <varray name="rec_basis" >
    <v>       0.10320438       0.00000000       0.00000000 </v>
    <v>       0.00000000       0.10320438       0.00000000 </v>
    <v>       0.00000000       0.00000000       0.10320438 </v>
   </varray>
  </crystal>
  <varray name="positions" >
   <v>       0.99341040       0.18401999       0.19664959 </v>
   <v>       0.95424547       0.83288762       0.81778950 </v>
   <v>       0.02684488       0.19853222       0.78040955 </v>
   <v>       0.02002832       0.67816604       0.30580747 </v>
   <v>       0.21963405       0.19853222       0.97319872 </v>
   <v>       0.18225411       0.83288762       0.04579813 </v>
   <v>       0.80339401       0.18401999       0.00663320 </v>
   <v>       0.69423613       0.67816604       0.98001528 </v>
   <v>       0.30201456       0.97679516       0.33039611 </v>
   <v>       0.32473104       0.02762238       0.67531256 </v>
   <v>       0.66964749       0.97679516       0.69802904 </v>
   <v>       0.68471909       0.03039680       0.31532451 </v>
   <v>       0.20124475       0.69145920       0.49083965 </v>
   <v>       0.19373864       0.32415376       0.51718545 </v>
   <v>       0.70805777       0.77760708       0.51961333 </v>
   <v>       0.82947205       0.30107894       0.46224899 </v>
   <v>       0.24108603       0.48014003       0.75895757 </v>
   <v>       0.32110568       0.53888085       0.17223315 </v>
   <v>       0.77170647       0.46961782       0.22833713 </v>
   <v>       0.82781045       0.53888085       0.67893793 </v>
   <v>       0.48285815       0.32415376       0.80630496 </v>
   <v>       0.48043027       0.77760708       0.29198583 </v>
   <v>       0.53779461       0.30107894       0.17057155 </v>
   <v>       0.50920395       0.69145920       0.79879885 </v>
   <v>       0.51055098       0.48471487       0.48949262 </v>
   <v>       0.49758565       0.99506881       0.00315547 </v>
   <v>       0.00677813       0.50590818       0.99326547 </v>
   <v>       0.99688814       0.99506881       0.50245795 </v>
   <v>       0.11953640       0.87966270       0.63026847 </v>
   <v>       0.12213779       0.12571043       0.39089371 </v>
   <v>       0.88149149       0.87641192       0.37156922 </v>
   <v>       0.86485027       0.11329100       0.61885085 </v>
   <v>       0.88832916       0.63686242       0.11171444 </v>
   <v>       0.88328453       0.38536306       0.87074358 </v>
   <v>       0.12069115       0.64319596       0.87935245 </v>
   <v>       0.12930002       0.38536306       0.11675907 </v>
   <v>       0.60914989       0.12571043       0.87790581 </v>
   <v>       0.62847438       0.87641192       0.11855211 </v>
   <v>       0.38119275       0.11329100       0.13519333 </v>
   <v>       0.36977513       0.87966270       0.88050721 </v>
   <v>       0.63335359       0.60751054       0.36669002 </v>
   <v>       0.63750175       0.37121276       0.61304683 </v>
   <v>       0.38738898       0.60779757       0.61265463 </v>
   <v>       0.38699677       0.37121276       0.36254185 </v>
   <v>       0.73743176       0.75112054       0.75326253 </v>
   <v>       0.76325294       0.24058615       0.23679066 </v>
   <v>       0.24678107       0.75112054       0.26261184 </v>
   <v>       0.25801781       0.25014352       0.74202579 </v>
   <v>       0.01514090       0.03686207       0.98490270 </v>
   <v>       0.00730078       0.50225356       0.49549654 </v>
   <v>       0.51152791       0.96120154       0.48851569 </v>
   <v>       0.50454706       0.50225356       0.99274282 </v>
  </varray>
 </structure>
 <calculation>
  <scstep>
   <time name="dav">    1.67    1.75</time>
   <time name="total">    2.14    2.24</time>
   <energy>
    <i name="alphaZ">    298.39819455 </i>
    <i name="ewald">  -8776.40450867 </i>
    <i name="hartreedc">  -2129.91992722 </i>
    <i name="XCdc">    533.85537431 </i>
    <i name="pawpsdc">   8141.38806575 </i>
    <i name="pawaedc">  -8271.61346273 </i>
    <i name="eentropy">     -0.00707247 </i>
    <i name="bandstr">   -916.26245734 </i>
    <i name="atom">  12703.13999606 </i>
    <i name="e_fr_energy">   1582.57420224 </i>
    <i name="e_wo_entrp">   1582.58127471 </i>
    <i name="e_0_energy">   1582.57773848 </i>
   </energy>
  </scstep>
  <scstep>
   <time name="dav">    1.96    1.99</time>
   <time name="total">    1.96    1.99</time>
   <energy>
    <i name="e_fr_energy">    -56.27494923 </i>
    <i name="e_wo_entrp">    -56.27494923 </i>
    <i name="e_0_energy">    -56.27494923 </i>
   </energy>
  </scstep>
  <scstep>
   <time name="dav">    1.92    1.94</time>
   <time name="total">    1.92    1.94</time>
   <energy>
    <i name="e_fr_energy">   -228.70575782 </i>
    <i name="e_wo_entrp">   -228.70575782 </i>
    <i name="e_0_energy">   -228.70575782 </i>
   </energy>
  </scstep>
  <scstep>
   <time name="dav">    2.29    2.31</time>
   <time name="total">    2.29    2.31</time>
   <energy>
    <i name="e_fr_energy">   -241.66684609 </i>
    <i name="e_wo_entrp">   -241.66684609 </i>
    <i name="e_0_energy">   -241.66684609 </i>
   </energy>
  </scstep>
  <scstep>
   <time name="dav">    2.27    2.31</time>
   <time name="total">    2.27    2.31</time>
   <energy>
    <i name="e_fr_energy">   -241.97348885 </i>
    <i name="e_wo_entrp">   -241.97348885 </i>
    <i name="e_0_energy">   -241.97348885 </i>
   </energy>
  </scstep>
  <scstep>
   <time name="dav">    2.26    2.31</time>
   <time name="total">    2.26    2.31</time>
   <energy>
    <i name="e_fr_energy">   -241.98445090 </i>
    <i name="e_wo_entrp">   -241.98445090 </i>
    <i name="e_0_energy">   -241.98445090 </i>
   </energy>
  </scstep>
  <scstep>
   <time name="dav">    2.26    2.28</time>
   <time name="total">    2.26    2.28</time>
   <energy>
    <i name="e_fr_energy">   -241.98488152 </i>
    <i name="e_wo_entrp">   -241.98488152 </i>
    <i name="e_0_energy">   -241.98488152 </i>
   </energy>
  </scstep>
  <scstep>
   <time name="dav">    2.48    2.55</time>
   <time name="total">    2.48    2.55</time>
   <energy>
    <i name="e_fr_energy">   -241.98490718 </i>
    <i name="e_wo_entrp">   -241.98490718 </i>
    <i name="e_0_energy">   -241.98490718 </i>
   </energy>
  </scstep>
  <scstep>
   <time name="dav">    2.22    2.24</time>
   <time name="total">    2.22    2.24</time>
   <energy>
    <i name="e_fr_energy">   -241.98490886 </i>
    <i name="e_wo_entrp">   -241.98490886 </i>
    <i name="e_0_energy">   -241.98490886 </i>
   </energy>
  </scstep>
  <scstep>
   <time name="dav">    1.45    1.47</time>
   <time name="total">    1.59    1.64</time>
   <energy>
    <i name="e_fr_energy">   -241.98490893 </i>
    <i name="e_wo_entrp">   -241.98490893 </i>
    <i name="e_0_energy">   -241.98490893 </i>
   </energy>
  </scstep>
  <scstep>
   <time name="diag">    0.28    0.28</time>
   <time name="diis">    0.87    0.88</time>
   <time name="orth">    0.05    0.06</time>
   <time name="total">    1.79    1.84</time>
   <energy>
    <i name="e_fr_energy">   -235.19797293 </i>
    <i name="e_wo_entrp">   -235.19797293 </i>
    <i name="e_0_energy">   -235.19797293 </i>
   </energy>
  </scstep>
  <scstep>
   <time name="diag">    0.27    0.27</time>
   <time name="diis">    0.92    0.92</time>
   <time name="orth">    0.05    0.05</time>
   <time name="total">    1.83    1.87</time>
   <energy>
    <i name="e_fr_energy">   -255.86207669 </i>
    <i name="e_wo_entrp">   -255.86207669 </i>
    <i name="e_0_energy">   -255.86207669 </i>
   </energy>
  </scstep>
  <scstep>
   <time name="diag">    0.27    0.27</time>
   <time name="diis">    0.98    1.01</time>
   <time name="orth">    0.05    0.05</time>
   <time name="total">    1.88    1.94</time>
   <energy>
    <i name="e_fr_energy">   -258.35922805 </i>
    <i name="e_wo_entrp">   -258.35922805 </i>
    <i name="e_0_energy">   -258.35922805 </i>
   </energy>
  </scstep>
  <scstep>
   <time name="diag">    0.27    0.27</time>
   <time name="diis">    1.16    1.17</time>
   <time name="orth">    0.05    0.05</time>
   <time name="total">    2.07    2.11</time>
   <energy>
    <i name="e_fr_energy">   -258.54720787 </i>
    <i name="e_wo_entrp">   -258.54720787 </i>
    <i name="e_0_energy">   -258.54720787 </i>
   </energy>
  </scstep>
  <scstep>
   <time name="diag">    0.27    0.27</time>
   <time name="diis">    0.96    0.97</time>
   <time name="orth">    0.05    0.05</time>
   <time name="total">    1.85    1.89</time>
   <energy>
    <i name="e_fr_energy">   -258.51641960 </i>
    <i name="e_wo_entrp">   -258.51641960 </i>
    <i name="e_0_energy">   -258.51641960 </i>
   </energy>
  </scstep>
  <scstep>
   <time name="diag">    0.27    0.27</time>
   <time name="diis">    0.97    0.98</time>
   <time name="orth">    0.05    0.05</time>
   <time name="total">    1.87    1.89</time>
   <energy>
    <i name="e_fr_energy">   -258.53681369 </i>
    <i name="e_wo_entrp">   -258.53681369 </i>
    <i name="e_0_energy">   -258.53681369 </i>
   </energy>
  </scstep>
  <scstep>
   <time name="diag">    0.27    0.27</time>
   <time name="diis">    1.09    1.10</time>
   <time name="orth">    0.05    0.05</time>
   <time name="total">    1.98    2.03</time>
   <energy>
    <i name="e_fr_energy">   -258.54275933 </i>
    <i name="e_wo_entrp">   -258.54275933 </i>
    <i name="e_0_energy">   -258.54275933 </i>
   </energy>
  </scstep>
  <scstep>
   <time name="diag">    0.27    0.27</time>
   <time name="diis">    1.06    1.07</time>
   <time name="orth">    0.05    0.05</time>
   <time name="total">    1.97    2.00</time>
   <energy>
    <i name="e_fr_energy">   -258.54405927 </i>
    <i name="e_wo_entrp">   -258.54405927 </i>
    <i name="e_0_energy">   -258.54405927 </i>
   </energy>
  </scstep>
  <scstep>
   <time name="diag">    0.27    0.27</time>
   <time name="diis">    1.24    1.25</time>
   <time name="orth">    0.05    0.05</time>
   <time name="total">    2.13    2.17</time>
   <energy>
    <i name="e_fr_energy">   -258.54454485 </i>
    <i name="e_wo_entrp">   -258.54454485 </i>
    <i name="e_0_energy">   -258.54454485 </i>
   </energy>
  </scstep>
  <scstep>
   <time name="diag">    0.27    0.27</time>
   <time name="diis">    1.19    1.20</time>
   <time name="orth">    0.05    0.05</time>
   <time name="total">    2.07    2.11</time>
   <energy>
    <i name="e_fr_energy">   -258.54463724 </i>
    <i name="e_wo_entrp">   -258.54463724 </i>
    <i name="e_0_energy">   -258.54463724 </i>
   </energy>
  </scstep>
  <scstep>
   <time name="diag">    0.27    0.27</time>
   <time name="diis">    1.06    1.07</time>
   <time name="orth">    0.05    0.05</time>
   <time name="total">    1.95    1.99</time>
   <energy>
    <i name="e_fr_energy">   -258.54465585 </i>
    <i name="e_wo_entrp">   -258.54465585 </i>
    <i name="e_0_energy">   -258.54465585 </i>
   </energy>
  </scstep>
  <scstep>
   <time name="diag">    0.27    0.27</time>
   <time name="diis">    1.20    1.21</time>
   <time name="orth">    0.05    0.05</time>
   <time name="total">    2.09    2.12</time>
   <energy>
    <i name="e_fr_energy">   -258.54466209 </i>
    <i name="e_wo_entrp">   -258.54466209 </i>
    <i name="e_0_energy">   -258.54466209 </i>
   </energy>
  </scstep>
  <scstep>
   <time name="diag">    0.27    0.27</time>
   <time name="diis">    0.96    0.97</time>
   <time name="orth">    0.05    0.05</time>
   <time name="total">    1.85    1.87</time>
   <energy>
    <i name="e_fr_energy">   -258.54466189 </i>
    <i name="e_wo_entrp">   -258.54466189 </i>
    <i name="e_0_energy">   -258.54466189 </i>
   </energy>
  </scstep>
  <scstep>
   <time name="diag">    0.27    0.27</time>
   <time name="diis">    0.72    0.72</time>
   <time name="orth">    0.05    0.05</time>
   <time name="total">    1.49    1.50</time>
   <energy>
    <i name="alphaZ">    298.39819455 </i>
    <i name="ewald">  -8776.40450867 </i>
    <i name="hartreedc">  -2231.55503001 </i>
    <i name="XCdc">    537.69710562 </i>
    <i name="pawpsdc">   9831.51362358 </i>
    <i name="pawaedc">  -9975.60720705 </i>
    <i name="eentropy">     -0.00000000 </i>
    <i name="bandstr">  -2645.72683536 </i>
    <i name="atom">  12703.13999606 </i>
    <i name="e_fr_energy">   -258.54466128 </i>
    <i name="e_wo_entrp">   -258.54466128 </i>
    <i name="e_0_energy">   -258.54466128 </i>
   </energy>
  </scstep>
  <structure>
   <crystal>
    <varray name="basis" >
     <v>       9.68951159       0.00000000       0.00000000 </v>
     <v>       0.00000000       9.68951159       0.00000000 </v>
     <v>       0.00000000       0.00000000       9.68951159 </v>
    </varray>
    <i name="volume">    909.71563715 </i>
    <varray name="rec_basis" >
     <v>       0.10320438       0.00000000       0.00000000 </v>
     <v>       0.00000000       0.10320438       0.00000000 </v>
     <v>       0.00000000       0.00000000       0.10320438 </v>
    </varray>
   </crystal>
   <varray name="positions" >
    <v>       0.99341040       0.18401999       0.19664959 </v>
    <v>       0.95424547       0.83288762       0.81778950 </v>
    <v>       0.02684488       0.19853222       0.78040955 </v>
    <v>       0.02002832       0.67816604       0.30580747 </v>
    <v>       0.21963405       0.19853222       0.97319872 </v>
    <v>       0.18225411       0.83288762       0.04579813 </v>
    <v>       0.80339401       0.18401999       0.00663320 </v>
    <v>       0.69423613       0.67816604       0.98001528 </v>
    <v>       0.30201456       0.97679516       0.33039611 </v>
    <v>       0.32473104       0.02762238       0.67531256 </v>
    <v>       0.66964749       0.97679516       0.69802904 </v>
    <v>       0.68471909       0.03039680       0.31532451 </v>
    <v>       0.20124475       0.69145920       0.49083965 </v>
    <v>       0.19373864       0.32415376       0.51718545 </v>
    <v>       0.70805777       0.77760708       0.51961333 </v>
    <v>       0.82947205       0.30107894       0.46224899 </v>
    <v>       0.24108603       0.48014003       0.75895757 </v>
    <v>       0.32110568       0.53888085       0.17223315 </v>
    <v>       0.77170647       0.46961782       0.22833713 </v>
    <v>       0.82781045       0.53888085       0.67893793 </v>
    <v>       0.48285815       0.32415376       0.80630496 </v>
    <v>       0.48043027       0.77760708       0.29198583 </v>
    <v>       0.53779461       0.30107894       0.17057155 </v>
    <v>       0.50920395       0.69145920       0.79879885 </v>
    <v>       0.51055098       0.48471487       0.48949262 </v>
    <v>       0.49758565       0.99506881       0.00315547 </v>
    <v>       0.00677813       0.50590818       0.99326547 </v>
    <v>       0.99688814       0.99506881       0.50245795 </v>
    <v>       0.11953640       0.87966270       0.63026847 </v>
    <v>       0.12213779       0.12571043       0.39089371 </v>
    <v>       0.88149149       0.87641192       0.37156922 </v>
    <v>       0.86485027       0.11329100       0.61885085 </v>
    <v>       0.88832916       0.63686242       0.11171444 </v>
    <v>       0.88328453       0.38536306       0.87074358 </v>
    <v>       0.12069115       0.64319596       0.87935245 </v>
    <v>       0.12930002       0.38536306       0.11675907 </v>
    <v>       0.60914989       0.12571043       0.87790581 </v>
    <v>       0.62847438       0.87641192       0.11855211 </v>
    <v>       0.38119275       0.11329100       0.13519333 </v>
    <v>       0.36977513       0.87966270       0.88050721 </v>
    <v>       0.63335359       0.60751054       0.36669002 </v>
    <v>       0.63750175       0.37121276       0.61304683 </v>
    <v>       0.38738898       0.60779757       0.61265463 </v>
    <v>       0.38699677       0.37121276       0.36254185 </v>
    <v>       0.73743176       0.75112054       0.75326253 </v>
    <v>       0.76325294       0.24058615       0.23679066 </v>
    <v>       0.24678107       0.75112054       0.26261184 </v>
    <v>       0.25801781       0.25014352       0.74202579 </v>
    <v>       0.01514090       0.03686207       0.98490270 </v>
    <v>       0.00730078       0.50225356       0.49549654 </v>
    <v>       0.51152791       0.96120154       0.48851569 </v>
    <v>       0.50454706       0.50225356       0.99274282 </v>
   </varray>
  </structure>
  <varray name="forces" >
   <v>       0.00001406      -0.00097126      -0.00007464 </v>
   <v>      -0.00036377       0.00060825       0.00099983 </v>
   <v>      -0.00038929      -0.00011003       0.00011336 </v>
   <v>       0.00014957      -0.00140379       0.00078617 </v>
   <v>      -0.00011336      -0.00011003       0.00038929 </v>
   <v>      -0.00099983       0.00060825       0.00036377 </v>
   <v>       0.00007464      -0.00097126      -0.00001406 </v>
   <v>      -0.00078617      -0.00140379      -0.00014957 </v>
   <v>       0.00028642      -0.00008263       0.00101526 </v>
   <v>       0.00060781      -0.00008680      -0.00060781 </v>
   <v>      -0.00101526      -0.00008263      -0.00028642 </v>
   <v>      -0.00019979      -0.00006171       0.00019979 </v>
   <v>      -0.00011843       0.00044246       0.00051500 </v>
   <v>       0.00085839       0.00082905       0.00011181 </v>
   <v>       0.00104044       0.00008584      -0.00029586 </v>
   <v>       0.00161968       0.00047984      -0.00031258 </v>
   <v>      -0.00017183      -0.00013502       0.00017183 </v>
   <v>      -0.00004739      -0.00014386      -0.00001596 </v>
   <v>       0.00054569       0.00013296      -0.00054569 </v>
   <v>       0.00001596      -0.00014386       0.00004739 </v>
   <v>      -0.00011181       0.00082905      -0.00085839 </v>
   <v>       0.00029586       0.00008584      -0.00104044 </v>
   <v>       0.00031258       0.00047984      -0.00161968 </v>
   <v>      -0.00051500       0.00044246       0.00011843 </v>
   <v>       0.00037950      -0.00015358      -0.00037950 </v>
   <v>       0.00001661       0.00018120       0.00000365 </v>
   <v>       0.00000535       0.00021066      -0.00000535 </v>
   <v>      -0.00000365       0.00018120      -0.00001661 </v>
   <v>       0.00018399       0.00004731       0.00081809 </v>
   <v>       0.00038365       0.00076123       0.00036064 </v>
   <v>       0.00038801      -0.00000953      -0.00105583 </v>
   <v>      -0.00087794       0.00003327       0.00016116 </v>
   <v>      -0.00000892       0.00178157       0.00000892 </v>
   <v>      -0.00081283      -0.00007059       0.00013230 </v>
   <v>       0.00010507       0.00055045      -0.00010507 </v>
   <v>      -0.00013230      -0.00007059       0.00081283 </v>
   <v>      -0.00036064       0.00076123      -0.00038365 </v>
   <v>       0.00105583      -0.00000953      -0.00038801 </v>
   <v>      -0.00016116       0.00003327       0.00087794 </v>
   <v>      -0.00081809       0.00004731      -0.00018399 </v>
   <v>       0.00050268      -0.00005903      -0.00050268 </v>
   <v>       0.00082975      -0.00072239      -0.00004686 </v>
   <v>      -0.00003675      -0.00037034       0.00003675 </v>
   <v>       0.00004686      -0.00072239      -0.00082975 </v>
   <v>      -0.00012359       0.00000387       0.00019965 </v>
   <v>      -0.00003307      -0.00016680       0.00003307 </v>
   <v>      -0.00019965       0.00000387       0.00012359 </v>
   <v>       0.00005460      -0.00045482      -0.00005460 </v>
   <v>      -0.00059362      -0.00157394       0.00059362 </v>
   <v>       0.00017654      -0.00014108       0.00043735 </v>
   <v>      -0.00051808       0.00075206       0.00051808 </v>
   <v>      -0.00043735      -0.00014108      -0.00017654 </v>
  </varray>
  <varray name="stress" >
   <v>       0.94628375      -2.32210804       4.74334175 </v>
   <v>      -2.32210847      -1.81677050       2.32210847 </v>
   <v>       4.74334175       2.32210804       0.94628375 </v>
  </varray>
  <energy>
   <i name="e_fr_energy">   -271.99003764 </i>
   <i name="e_wo_entrp">   -271.99003764 </i>
   <i name="e_0_energy">   -271.99003764 </i>
  </energy>
  <time name="totalsc">   51.17   52.19</time>
 </calculation>
 <calculation>
  <scstep>
   <time name="dav">    1.64    1.66</time>
   <time name="total">    2.22    2.27</time>
   <energy>
    <i name="alphaZ">    298.39819455 </i>
    <i name="ewald">  -8776.42547486 </i>
    <i name="hartreedc">  -2231.54201380 </i>
    <i name="XCdc">    537.69681309 </i>
    <i name="pawpsdc">   9831.50978797 </i>
    <i name="pawaedc">  -9975.60331058 </i>
    <i name="eentropy">     -0.00000000 </i>
    <i name="bandstr">  -2645.71865502 </i>
    <i name="atom">  12703.13999606 </i>
    <i name="e_fr_energy">   -258.54466257 </i>
    <i name="e_wo_entrp">   -258.54466257 </i>
    <i name="e_0_energy">   -258.54466257 </i>
   </energy>
  </scstep>
  <scstep>
   <time name="diag">    0.27    0.28</time>
   <time name="diis">    0.64    0.64</time>
   <time name="orth">    0.05    0.05</time>
   <time name="total">    1.41    1.43</time>
   <energy>
    <i name="alphaZ">    298.39819455 </i>
    <i name="ewald">  -8776.42547486 </i>
    <i name="hartreedc">  -2231.54305900 </i>
    <i name="XCdc">    537.69658780 </i>
    <i name="pawpsdc">   9831.47163494 </i>
    <i name="pawaedc">  -9975.56462660 </i>
    <i name="eentropy">     -0.00000000 </i>
    <i name="bandstr">  -2645.71791564 </i>
    <i name="atom">  12703.13999606 </i>
    <i name="e_fr_energy">   -258.54466275 </i>
    <i name="e_wo_entrp">   -258.54466275 </i>
    <i name="e_0_energy">   -258.54466275 </i>
   </energy>
  </scstep>
  <structure>
   <crystal>
    <varray name="basis" >
     <v>       9.68951159       0.00000000       0.00000000 </v>
     <v>       0.00000000       9.68951159       0.00000000 </v>
     <v>       0.00000000       0.00000000       9.68951159 </v>
    </varray>
    <i name="volume">    909.71563715 </i>
    <varray name="rec_basis" >
     <v>       0.10320438       0.00000000       0.00000000 </v>
     <v>       0.00000000       0.10320438       0.00000000 </v>
     <v>       0.00000000       0.00000000       0.10320438 </v>
    </varray>
   </crystal>
   <varray name="positions" >
    <v>       0.99341043       0.18401806       0.19664944 </v>
    <v>       0.95424474       0.83288883       0.81779149 </v>
    <v>       0.02684410       0.19853200       0.78040977 </v>
    <v>       0.02002862       0.67816324       0.30580904 </v>
    <v>       0.21963383       0.19853200       0.97319950 </v>
    <v>       0.18225211       0.83288883       0.04579886 </v>
    <v>       0.80339416       0.18401806       0.00663317 </v>
    <v>       0.69423456       0.67816324       0.98001498 </v>
    <v>       0.30201513       0.97679499       0.33039813 </v>
    <v>       0.32473225       0.02762221       0.67531135 </v>
    <v>       0.66964547       0.97679499       0.69802847 </v>
    <v>       0.68471869       0.03039668       0.31532491 </v>
    <v>       0.20124452       0.69146008       0.49084068 </v>
    <v>       0.19374035       0.32415542       0.51718568 </v>
    <v>       0.70805985       0.77760725       0.51961274 </v>
    <v>       0.82947528       0.30107989       0.46224837 </v>
    <v>       0.24108569       0.48013976       0.75895791 </v>
    <v>       0.32110558       0.53888056       0.17223312 </v>
    <v>       0.77170756       0.46961809       0.22833604 </v>
    <v>       0.82781049       0.53888056       0.67893802 </v>
    <v>       0.48285793       0.32415542       0.80630325 </v>
    <v>       0.48043086       0.77760725       0.29198375 </v>
    <v>       0.53779523       0.30107989       0.17056832 </v>
    <v>       0.50920292       0.69146008       0.79879908 </v>
    <v>       0.51055174       0.48471457       0.48949186 </v>
    <v>       0.49758568       0.99506917       0.00315547 </v>
    <v>       0.00677814       0.50590860       0.99326546 </v>
    <v>       0.99688813       0.99506917       0.50245792 </v>
    <v>       0.11953676       0.87966279       0.63027010 </v>
    <v>       0.12213855       0.12571195       0.39089443 </v>
    <v>       0.88149226       0.87641190       0.37156711 </v>
    <v>       0.86484852       0.11329106       0.61885117 </v>
    <v>       0.88832914       0.63686597       0.11171446 </v>
    <v>       0.88328292       0.38536292       0.87074384 </v>
    <v>       0.12069136       0.64319706       0.87935224 </v>
    <v>       0.12929976       0.38536292       0.11676069 </v>
    <v>       0.60914917       0.12571195       0.87790505 </v>
    <v>       0.62847649       0.87641190       0.11855134 </v>
    <v>       0.38119243       0.11329106       0.13519508 </v>
    <v>       0.36977350       0.87966279       0.88050684 </v>
    <v>       0.63335459       0.60751042       0.36668901 </v>
    <v>       0.63750341       0.37121132       0.61304674 </v>
    <v>       0.38738890       0.60779683       0.61265470 </v>
    <v>       0.38699686       0.37121132       0.36254019 </v>
    <v>       0.73743152       0.75112055       0.75326293 </v>
    <v>       0.76325287       0.24058582       0.23679073 </v>
    <v>       0.24678067       0.75112055       0.26261208 </v>
    <v>       0.25801792       0.25014261       0.74202568 </v>
    <v>       0.01513972       0.03685894       0.98490388 </v>
    <v>       0.00730113       0.50225328       0.49549741 </v>
    <v>       0.51152688       0.96120304       0.48851672 </v>
    <v>       0.50454619       0.50225328       0.99274247 </v>
   </varray>
  </structure>
  <varray name="forces" >
   <v>      -0.00002331      -0.00061904      -0.00002467 </v>
   <v>      -0.00029194       0.00035518       0.00062562 </v>
   <v>      -0.00024583      -0.00009588       0.00008289 </v>
   <v>       0.00005781      -0.00090066       0.00047816 </v>
   <v>      -0.00008289      -0.00009588       0.00024583 </v>
   <v>      -0.00062562       0.00035518       0.00029194 </v>
   <v>       0.00002467      -0.00061904       0.00002331 </v>
   <v>      -0.00047816      -0.00090066      -0.00005781 </v>
   <v>       0.00013467      -0.00006696       0.00064558 </v>
   <v>       0.00035687      -0.00005681      -0.00035687 </v>
   <v>      -0.00064558      -0.00006696      -0.00013467 </v>
   <v>      -0.00015490      -0.00003246       0.00015490 </v>
   <v>      -0.00008153       0.00026543       0.00033131 </v>
   <v>       0.00050756       0.00048035       0.00008721 </v>
   <v>       0.00059353       0.00003694      -0.00015040 </v>
   <v>       0.00096753       0.00027034      -0.00016542 </v>
   <v>      -0.00010239      -0.00009850       0.00010239 </v>
   <v>      -0.00005108      -0.00010020       0.00001560 </v>
   <v>       0.00036338       0.00005796      -0.00036338 </v>
   <v>      -0.00001560      -0.00010020       0.00005108 </v>
   <v>      -0.00008721       0.00048035      -0.00050756 </v>
   <v>       0.00015040       0.00003694      -0.00059353 </v>
   <v>       0.00016542       0.00027034      -0.00096753 </v>
   <v>      -0.00033131       0.00026543       0.00008153 </v>
   <v>       0.00030843      -0.00025236      -0.00030843 </v>
   <v>      -0.00011768       0.00010872       0.00005198 </v>
   <v>      -0.00011203       0.00015008       0.00011203 </v>
   <v>      -0.00005198       0.00010872       0.00011768 </v>
   <v>      -0.00000633       0.00004596       0.00037509 </v>
   <v>       0.00013435       0.00039491       0.00020865 </v>
   <v>       0.00014730       0.00001058      -0.00041560 </v>
   <v>      -0.00041828      -0.00005166       0.00006842 </v>
   <v>      -0.00000379       0.00076478       0.00000379 </v>
   <v>      -0.00036108      -0.00009037       0.00020052 </v>
   <v>       0.00013079       0.00009617      -0.00013079 </v>
   <v>      -0.00020052      -0.00009037       0.00036108 </v>
   <v>      -0.00020865       0.00039491      -0.00013435 </v>
   <v>       0.00041560       0.00001058      -0.00014730 </v>
   <v>      -0.00006842      -0.00005166       0.00041828 </v>
   <v>      -0.00037509       0.00004596       0.00000633 </v>
   <v>       0.00022156       0.00010039      -0.00022156 </v>
   <v>       0.00043794      -0.00028292      -0.00003453 </v>
   <v>       0.00003361      -0.00027921      -0.00003361 </v>
   <v>       0.00003453      -0.00028292      -0.00043794 </v>
   <v>      -0.00022416      -0.00003970      -0.00005613 </v>
   <v>       0.00004071       0.00004639      -0.00004071 </v>
   <v>       0.00005613      -0.00003970       0.00022416 </v>
   <v>      -0.00017171      -0.00009646       0.00017171 </v>
   <v>       0.00000903       0.00053390      -0.00000903 </v>
   <v>       0.00011091       0.00003999       0.00011949 </v>
   <v>       0.00025382      -0.00045588      -0.00025382 </v>
   <v>      -0.00011949       0.00003999      -0.00011091 </v>
  </varray>
  <varray name="stress" >
   <v>       0.93346711      -2.32203363       4.74283642 </v>
   <v>      -2.32203401      -1.82941612       2.32203401 </v>
   <v>       4.74283642       2.32203363       0.93346711 </v>
  </varray>
  <energy>
   <i name="e_fr_energy">   -271.99003887 </i>
   <i name="e_wo_entrp">   -271.99003887 </i>
   <i name="e_0_energy">   -271.99003887 </i>
  </energy>
  <time name="totalsc">    6.35    6.48</time>
 </calculation>
 <calculation>
  <scstep>
   <time name="dav">    1.73    1.75</time>
   <time name="total">    2.32    2.37</time>
   <energy>
    <i name="alphaZ">    298.39819455 </i>
    <i name="ewald">  -8776.44378533 </i>
    <i name="hartreedc">  -2231.52868024 </i>
    <i name="XCdc">    537.69610590 </i>
    <i name="pawpsdc">   9831.44777058 </i>
    <i name="pawaedc">  -9975.54031728 </i>
    <i name="eentropy">     -0.00000000 </i>
    <i name="bandstr">  -2645.71394775 </i>
    <i name="atom">  12703.13999606 </i>
    <i name="e_fr_energy">   -258.54466350 </i>
    <i name="e_wo_entrp">   -258.54466350 </i>
    <i name="e_0_energy">   -258.54466350 </i>
   </energy>
  </scstep>
  <scstep>
   <time name="diag">    0.27    0.27</time>
   <time name="diis">    0.64    0.64</time>
   <time name="orth">    0.05    0.05</time>
   <time name="total">    1.41    1.42</time>
   <energy>
    <i name="alphaZ">    298.39819455 </i>
    <i name="ewald">  -8776.44378533 </i>
    <i name="hartreedc">  -2231.52757065 </i>
    <i name="XCdc">    537.69594712 </i>
    <i name="pawpsdc">   9831.41821178 </i>
    <i name="pawaedc">  -9975.51049956 </i>
    <i name="eentropy">     -0.00000000 </i>
    <i name="bandstr">  -2645.71515752 </i>
    <i name="atom">  12703.13999606 </i>
    <i name="e_fr_energy">   -258.54466354 </i>
    <i name="e_wo_entrp">   -258.54466354 </i>
    <i name="e_0_energy">   -258.54466354 </i>
   </energy>
  </scstep>
  <structure>
   <crystal>
    <varray name="basis" >
     <v>       9.68951159       0.00000000       0.00000000 </v>
     <v>       0.00000000       9.68951159       0.00000000 </v>
     <v>       0.00000000       0.00000000       9.68951159 </v>
    </varray>
    <i name="volume">    909.71563715 </i>
    <varray name="rec_basis" >
     <v>       0.10320438       0.00000000       0.00000000 </v>
     <v>       0.00000000       0.10320438       0.00000000 </v>
     <v>       0.00000000       0.00000000       0.10320438 </v>
    </varray>
   </crystal>
   <varray name="positions" >
    <v>       0.99341046       0.18401637       0.19664931 </v>
    <v>       0.95424411       0.83288989       0.81779323 </v>
    <v>       0.02684343       0.19853181       0.78040997 </v>
    <v>       0.02002888       0.67816080       0.30581040 </v>
    <v>       0.21963363       0.19853181       0.97320017 </v>
    <v>       0.18225038       0.83288989       0.04579949 </v>
    <v>       0.80339429       0.18401637       0.00663314 </v>
    <v>       0.69423320       0.67816080       0.98001472 </v>
    <v>       0.30201563       0.97679485       0.33039990 </v>
    <v>       0.32473331       0.02762206       0.67531029 </v>
    <v>       0.66964370       0.97679485       0.69802797 </v>
    <v>       0.68471835       0.03039657       0.31532526 </v>
    <v>       0.20124431       0.69146085       0.49084158 </v>
    <v>       0.19374185       0.32415686       0.51718587 </v>
    <v>       0.70806166       0.77760740       0.51961223 </v>
    <v>       0.82947810       0.30108073       0.46224782 </v>
    <v>       0.24108539       0.48013953       0.75895821 </v>
    <v>       0.32110550       0.53888031       0.17223309 </v>
    <v>       0.77170851       0.46961832       0.22833509 </v>
    <v>       0.82781051       0.53888031       0.67893810 </v>
    <v>       0.48285773       0.32415686       0.80630175 </v>
    <v>       0.48043137       0.77760740       0.29198194 </v>
    <v>       0.53779578       0.30108073       0.17056550 </v>
    <v>       0.50920203       0.69146085       0.79879929 </v>
    <v>       0.51055240       0.48471430       0.48949120 </v>
    <v>       0.49758571       0.99506949       0.00315548 </v>
    <v>       0.00677815       0.50590896       0.99326545 </v>
    <v>       0.99688812       0.99506949       0.50245789 </v>
    <v>       0.11953708       0.87966288       0.63027153 </v>
    <v>       0.12213922       0.12571327       0.39089506 </v>
    <v>       0.88149294       0.87641188       0.37156528 </v>
    <v>       0.86484700       0.11329112       0.61885145 </v>
    <v>       0.88832912       0.63686907       0.11171448 </v>
    <v>       0.88328150       0.38536280       0.87074407 </v>
    <v>       0.12069154       0.64319802       0.87935206 </v>
    <v>       0.12929953       0.38536280       0.11676210 </v>
    <v>       0.60914854       0.12571327       0.87790438 </v>
    <v>       0.62847832       0.87641188       0.11855066 </v>
    <v>       0.38119215       0.11329112       0.13519660 </v>
    <v>       0.36977208       0.87966288       0.88050652 </v>
    <v>       0.63335546       0.60751032       0.36668814 </v>
    <v>       0.63750485       0.37121006       0.61304666 </v>
    <v>       0.38738884       0.60779619       0.61265476 </v>
    <v>       0.38699694       0.37121006       0.36253875 </v>
    <v>       0.73743130       0.75112056       0.75326327 </v>
    <v>       0.76325282       0.24058553       0.23679079 </v>
    <v>       0.24678033       0.75112056       0.26261230 </v>
    <v>       0.25801802       0.25014182       0.74202558 </v>
    <v>       0.01513869       0.03685620       0.98490491 </v>
    <v>       0.00730144       0.50225304       0.49549817 </v>
    <v>       0.51152598       0.96120434       0.48851762 </v>
    <v>       0.50454543       0.50225304       0.99274216 </v>
   </varray>
  </structure>
  <varray name="forces" >
   <v>      -0.00003092      -0.00070790      -0.00001618 </v>
   <v>      -0.00033102       0.00043035       0.00075630 </v>
   <v>      -0.00024909      -0.00010101       0.00004612 </v>
   <v>       0.00006665      -0.00101454       0.00052590 </v>
   <v>      -0.00004612      -0.00010101       0.00024909 </v>
   <v>      -0.00075630       0.00043035       0.00033102 </v>
   <v>       0.00001618      -0.00070790       0.00003092 </v>
   <v>      -0.00052590      -0.00101454      -0.00006665 </v>
   <v>       0.00016038      -0.00006268       0.00075351 </v>
   <v>       0.00039681      -0.00005945      -0.00039681 </v>
   <v>      -0.00075351      -0.00006268      -0.00016038 </v>
   <v>      -0.00013927       0.00000210       0.00013927 </v>
   <v>      -0.00007717       0.00029315       0.00035798 </v>
   <v>       0.00059287       0.00055570       0.00009629 </v>
   <v>       0.00070665       0.00002778      -0.00016555 </v>
   <v>       0.00113980       0.00031753      -0.00019049 </v>
   <v>      -0.00012846      -0.00012685       0.00012846 </v>
   <v>      -0.00004473      -0.00006114       0.00002153 </v>
   <v>       0.00037602       0.00006140      -0.00037602 </v>
   <v>      -0.00002153      -0.00006114       0.00004473 </v>
   <v>      -0.00009629       0.00055570      -0.00059287 </v>
   <v>       0.00016555       0.00002778      -0.00070665 </v>
   <v>       0.00019049       0.00031753      -0.00113980 </v>
   <v>      -0.00035798       0.00029315       0.00007717 </v>
   <v>       0.00024529      -0.00038858      -0.00024529 </v>
   <v>      -0.00016733       0.00006319       0.00004005 </v>
   <v>      -0.00018961       0.00022264       0.00018961 </v>
   <v>      -0.00004005       0.00006319       0.00016733 </v>
   <v>      -0.00012894       0.00017264       0.00024891 </v>
   <v>       0.00005024       0.00030311       0.00028140 </v>
   <v>       0.00028405       0.00013459      -0.00033734 </v>
   <v>      -0.00029830      -0.00015075      -0.00005290 </v>
   <v>       0.00016283       0.00059064      -0.00016283 </v>
   <v>      -0.00027344       0.00004343       0.00031408 </v>
   <v>       0.00005928      -0.00002166      -0.00005928 </v>
   <v>      -0.00031408       0.00004343       0.00027344 </v>
   <v>      -0.00028140       0.00030311      -0.00005024 </v>
   <v>       0.00033734       0.00013459      -0.00028405 </v>
   <v>       0.00005290      -0.00015075       0.00029830 </v>
   <v>      -0.00024891       0.00017264       0.00012894 </v>
   <v>       0.00015976       0.00002577      -0.00015976 </v>
   <v>       0.00026469      -0.00016512      -0.00021917 </v>
   <v>       0.00011108      -0.00034644      -0.00011108 </v>
   <v>       0.00021917      -0.00016512      -0.00026469 </v>
   <v>      -0.00021290      -0.00003734      -0.00002677 </v>
   <v>       0.00004554       0.00002617      -0.00004554 </v>
   <v>       0.00002677      -0.00003734       0.00021290 </v>
   <v>      -0.00013664      -0.00013628       0.00013664 </v>
   <v>      -0.00010072       0.00029273       0.00010072 </v>
   <v>       0.00013629       0.00002324       0.00016527 </v>
   <v>       0.00014922      -0.00027066      -0.00014922 </v>
   <v>      -0.00016527       0.00002324      -0.00013629 </v>
  </varray>
  <varray name="stress" >
   <v>       0.92633796      -2.32173562       4.74231573 </v>
   <v>      -2.32173606      -1.83669974       2.32173606 </v>
   <v>       4.74231573       2.32173562       0.92633796 </v>
  </varray>
  <energy>
   <i name="e_fr_energy">   -271.99003946 </i>
   <i name="e_wo_entrp">   -271.99003946 </i>
   <i name="e_0_energy">   -271.99003946 </i>
  </energy>
  <time name="totalsc">    6.44    6.57</time>
 </calculation>
 <calculation>
  <scstep>
   <time name="dav">    1.76    1.77</time>
   <time name="total">    2.32    2.35</time>
   <energy>
    <i name="alphaZ">    298.39819455 </i>
    <i name="ewald">  -8776.48040372 </i>
    <i name="hartreedc">  -2231.49737872 </i>
    <i name="XCdc">    537.69522401 </i>
    <i name="pawpsdc">   9831.40383491 </i>
    <i name="pawaedc">  -9975.49600949 </i>
    <i name="eentropy">     -0.00000000 </i>
    <i name="bandstr">  -2645.70812187 </i>
    <i name="atom">  12703.13999606 </i>
    <i name="e_fr_energy">   -258.54466426 </i>
    <i name="e_wo_entrp">   -258.54466426 </i>
    <i name="e_0_energy">   -258.54466426 </i>
   </energy>
  </scstep>
  <scstep>
   <time name="diag">    0.27    0.28</time>
   <time name="diis">    0.74    0.75</time>
   <time name="orth">    0.05    0.05</time>
   <time name="total">    1.51    1.53</time>
   <energy>
    <i name="alphaZ">    298.39819455 </i>
    <i name="ewald">  -8776.48040372 </i>
    <i name="hartreedc">  -2231.49535610 </i>
    <i name="XCdc">    537.69509563 </i>
    <i name="pawpsdc">   9831.36798840 </i>
    <i name="pawaedc">  -9975.46002397 </i>
    <i name="eentropy">     -0.00000000 </i>
    <i name="bandstr">  -2645.71015545 </i>
    <i name="atom">  12703.13999606 </i>
    <i name="e_fr_energy">   -258.54466460 </i>
    <i name="e_wo_entrp">   -258.54466460 </i>
    <i name="e_0_energy">   -258.54466460 </i>
   </energy>
  </scstep>
  <structure>
   <crystal>
    <varray name="basis" >
     <v>       9.68951159       0.00000000       0.00000000 </v>
     <v>       0.00000000       9.68951159       0.00000000 </v>
     <v>       0.00000000       0.00000000       9.68951159 </v>
    </varray>
    <i name="volume">    909.71563715 </i>
    <varray name="rec_basis" >
     <v>       0.10320438       0.00000000       0.00000000 </v>
     <v>       0.00000000       0.10320438       0.00000000 </v>
     <v>       0.00000000       0.00000000       0.10320438 </v>
    </varray>
   </crystal>
   <varray name="positions" >
    <v>       0.99341051       0.18401299       0.19664905 </v>
    <v>       0.95424285       0.83289200       0.81779670 </v>
    <v>       0.02684207       0.19853143       0.78041036 </v>
    <v>       0.02002940       0.67815592       0.30581314 </v>
    <v>       0.21963324       0.19853143       0.97320153 </v>
    <v>       0.18224690       0.83289200       0.04580076 </v>
    <v>       0.80339455       0.18401299       0.00663310 </v>
    <v>       0.69423046       0.67815592       0.98001420 </v>
    <v>       0.30201662       0.97679456       0.33040343 </v>
    <v>       0.32473542       0.02762176       0.67530818 </v>
    <v>       0.66964017       0.97679456       0.69802698 </v>
    <v>       0.68471765       0.03039635       0.31532595 </v>
    <v>       0.20124390       0.69146239       0.49084337 </v>
    <v>       0.19374483       0.32415974       0.51718626 </v>
    <v>       0.70806528       0.77760770       0.51961120 </v>
    <v>       0.82948373       0.30108240       0.46224674 </v>
    <v>       0.24108479       0.48013906       0.75895881 </v>
    <v>       0.32110533       0.53887981       0.17223303 </v>
    <v>       0.77171041       0.46961878       0.22833320 </v>
    <v>       0.82781057       0.53887981       0.67893827 </v>
    <v>       0.48285734       0.32415974       0.80629877 </v>
    <v>       0.48043240       0.77760770       0.29197833 </v>
    <v>       0.53779687       0.30108240       0.17055987 </v>
    <v>       0.50920023       0.69146239       0.79879970 </v>
    <v>       0.51055372       0.48471377       0.48948988 </v>
    <v>       0.49758577       0.99507012       0.00315549 </v>
    <v>       0.00677817       0.50590970       0.99326543 </v>
    <v>       0.99688811       0.99507012       0.50245783 </v>
    <v>       0.11953772       0.87966304       0.63027437 </v>
    <v>       0.12214055       0.12571592       0.39089631 </v>
    <v>       0.88149429       0.87641185       0.37156160 </v>
    <v>       0.86484394       0.11329124       0.61885201 </v>
    <v>       0.88832909       0.63687526       0.11171451 </v>
    <v>       0.88327867       0.38536255       0.87074453 </v>
    <v>       0.12069191       0.64319993       0.87935169 </v>
    <v>       0.12929907       0.38536255       0.11676493 </v>
    <v>       0.60914729       0.12571592       0.87790305 </v>
    <v>       0.62848200       0.87641185       0.11854931 </v>
    <v>       0.38119159       0.11329124       0.13519966 </v>
    <v>       0.36976923       0.87966304       0.88050588 </v>
    <v>       0.63335721       0.60751011       0.36668639 </v>
    <v>       0.63750774       0.37120755       0.61304650 </v>
    <v>       0.38738871       0.60779490       0.61265489 </v>
    <v>       0.38699710       0.37120755       0.36253587 </v>
    <v>       0.73743087       0.75112057       0.75326397 </v>
    <v>       0.76325270       0.24058495       0.23679090 </v>
    <v>       0.24677963       0.75112057       0.26261273 </v>
    <v>       0.25801821       0.25014024       0.74202539 </v>
    <v>       0.01513662       0.03685072       0.98490698 </v>
    <v>       0.00730205       0.50225255       0.49549969 </v>
    <v>       0.51152417       0.96120696       0.48851943 </v>
    <v>       0.50454391       0.50225255       0.99274155 </v>
   </varray>
  </structure>
  <varray name="forces" >
   <v>      -0.00006464      -0.00037267       0.00004781 </v>
   <v>      -0.00023332       0.00019401       0.00039500 </v>
   <v>      -0.00013056      -0.00008303      -0.00001799 </v>
   <v>       0.00000145      -0.00051813       0.00020841 </v>
   <v>       0.00001799      -0.00008303       0.00013056 </v>
   <v>      -0.00039500       0.00019401       0.00023332 </v>
   <v>      -0.00004781      -0.00037267       0.00006464 </v>
   <v>      -0.00020841      -0.00051813      -0.00000145 </v>
   <v>       0.00002577      -0.00003687       0.00039646 </v>
   <v>       0.00018479      -0.00004302      -0.00018479 </v>
   <v>      -0.00039646      -0.00003687      -0.00002577 </v>
   <v>      -0.00008581       0.00004168       0.00008581 </v>
   <v>      -0.00000973       0.00016285       0.00018598 </v>
   <v>       0.00030146       0.00022797       0.00005374 </v>
   <v>       0.00033479      -0.00003328      -0.00004769 </v>
   <v>       0.00055081       0.00011852      -0.00007360 </v>
   <v>      -0.00008664      -0.00012024       0.00008664 </v>
   <v>      -0.00005288      -0.00000192       0.00006024 </v>
   <v>       0.00025235       0.00002035      -0.00025235 </v>
   <v>      -0.00006024      -0.00000192       0.00005288 </v>
   <v>      -0.00005374       0.00022797      -0.00030146 </v>
   <v>       0.00004769      -0.00003328      -0.00033479 </v>
   <v>       0.00007360       0.00011852      -0.00055081 </v>
   <v>      -0.00018598       0.00016285       0.00000973 </v>
   <v>       0.00018531      -0.00067949      -0.00018531 </v>
   <v>      -0.00030396      -0.00001449       0.00005555 </v>
   <v>      -0.00037534       0.00032468       0.00037534 </v>
   <v>      -0.00005555      -0.00001449       0.00030396 </v>
   <v>      -0.00042241       0.00035952      -0.00026216 </v>
   <v>      -0.00022739      -0.00010775       0.00028204 </v>
   <v>       0.00035057       0.00032494       0.00022550 </v>
   <v>       0.00020290      -0.00036321      -0.00030503 </v>
   <v>       0.00040152      -0.00031818      -0.00040152 </v>
   <v>       0.00017820       0.00024050       0.00050286 </v>
   <v>      -0.00006634      -0.00044485       0.00006634 </v>
   <v>      -0.00050286       0.00024050      -0.00017820 </v>
   <v>      -0.00028204      -0.00010775       0.00022739 </v>
   <v>      -0.00022550       0.00032494      -0.00035057 </v>
   <v>       0.00030503      -0.00036321      -0.00020290 </v>
   <v>       0.00026216       0.00035952       0.00042241 </v>
   <v>      -0.00011053       0.00002620       0.00011053 </v>
   <v>      -0.00028694       0.00031897      -0.00048398 </v>
   <v>       0.00026363      -0.00039866      -0.00026363 </v>
   <v>       0.00048398       0.00031897       0.00028694 </v>
   <v>      -0.00020378      -0.00005183      -0.00012858 </v>
   <v>       0.00009906       0.00010614      -0.00009906 </v>
   <v>       0.00012858      -0.00005183       0.00020378 </v>
   <v>      -0.00018558       0.00008765       0.00018558 </v>
   <v>       0.00013801       0.00101978      -0.00013801 </v>
   <v>       0.00005545       0.00010445      -0.00005533 </v>
   <v>       0.00035901      -0.00055916      -0.00035901 </v>
   <v>       0.00005533       0.00010445      -0.00005545 </v>
  </varray>
  <varray name="stress" >
   <v>       0.91712224      -2.32134360       4.74138786 </v>
   <v>      -2.32134396      -1.84655034       2.32134396 </v>
   <v>       4.74138786       2.32134360       0.91712224 </v>
  </varray>
  <energy>
   <i name="e_fr_energy">   -271.99004010 </i>
   <i name="e_wo_entrp">   -271.99004010 </i>
   <i name="e_0_energy">   -271.99004010 </i>
  </energy>
  <time name="totalsc">    6.54   12.00</time>
 </calculation>
 <calculation>
  <scstep>
   <time name="dav">    1.57    1.58</time>
   <time name="total">    2.14    2.17</time>
   <energy>
    <i name="alphaZ">    298.39819455 </i>
    <i name="ewald">  -8776.48670362 </i>
    <i name="hartreedc">  -2231.48946741 </i>
    <i name="XCdc">    537.69492180 </i>
    <i name="pawpsdc">   9831.34990476 </i>
    <i name="pawaedc">  -9975.44184110 </i>
    <i name="eentropy">     -0.00000000 </i>
    <i name="bandstr">  -2645.70966991 </i>
    <i name="atom">  12703.13999606 </i>
    <i name="e_fr_energy">   -258.54466487 </i>
    <i name="e_wo_entrp">   -258.54466487 </i>
    <i name="e_0_energy">   -258.54466487 </i>
   </energy>
  </scstep>
  <scstep>
   <time name="diag">    0.27    0.27</time>
   <time name="diis">    0.55    0.56</time>
   <time name="orth">    0.05    0.05</time>
   <time name="total">    1.33    1.34</time>
   <energy>
    <i name="alphaZ">    298.39819455 </i>
    <i name="ewald">  -8776.48670362 </i>
    <i name="hartreedc">  -2231.48887624 </i>
    <i name="XCdc">    537.69488207 </i>
    <i name="pawpsdc">   9831.33602248 </i>
    <i name="pawaedc">  -9975.42788210 </i>
    <i name="eentropy">     -0.00000000 </i>
    <i name="bandstr">  -2645.71029810 </i>
    <i name="atom">  12703.13999606 </i>
    <i name="e_fr_energy">   -258.54466489 </i>
    <i name="e_wo_entrp">   -258.54466489 </i>
    <i name="e_0_energy">   -258.54466489 </i>
   </energy>
  </scstep>
  <structure>
   <crystal>
    <varray name="basis" >
     <v>       9.68951159       0.00000000       0.00000000 </v>
     <v>       0.00000000       9.68951159       0.00000000 </v>
     <v>       0.00000000       0.00000000       9.68951159 </v>
    </varray>
    <i name="volume">    909.71563715 </i>
    <varray name="rec_basis" >
     <v>       0.10320438       0.00000000       0.00000000 </v>
     <v>       0.00000000       0.10320438       0.00000000 </v>
     <v>       0.00000000       0.00000000       0.10320438 </v>
    </varray>
   </crystal>
   <varray name="positions" >
    <v>       0.99341051       0.18401241       0.19664901 </v>
    <v>       0.95424263       0.83289237       0.81779730 </v>
    <v>       0.02684184       0.19853136       0.78041043 </v>
    <v>       0.02002949       0.67815508       0.30581361 </v>
    <v>       0.21963317       0.19853136       0.97320176 </v>
    <v>       0.18224630       0.83289237       0.04580097 </v>
    <v>       0.80339459       0.18401241       0.00663309 </v>
    <v>       0.69422999       0.67815508       0.98001411 </v>
    <v>       0.30201679       0.97679451       0.33040404 </v>
    <v>       0.32473579       0.02762171       0.67530781 </v>
    <v>       0.66963956       0.97679451       0.69802681 </v>
    <v>       0.68471753       0.03039632       0.31532607 </v>
    <v>       0.20124383       0.69146266       0.49084367 </v>
    <v>       0.19374535       0.32416024       0.51718633 </v>
    <v>       0.70806590       0.77760775       0.51961102 </v>
    <v>       0.82948470       0.30108268       0.46224655 </v>
    <v>       0.24108469       0.48013898       0.75895891 </v>
    <v>       0.32110531       0.53887972       0.17223302 </v>
    <v>       0.77171073       0.46961886       0.22833287 </v>
    <v>       0.82781058       0.53887972       0.67893830 </v>
    <v>       0.48285728       0.32416024       0.80629825 </v>
    <v>       0.48043258       0.77760775       0.29197770 </v>
    <v>       0.53779705       0.30108268       0.17055890 </v>
    <v>       0.50919993       0.69146266       0.79879977 </v>
    <v>       0.51055395       0.48471367       0.48948966 </v>
    <v>       0.49758578       0.99507023       0.00315549 </v>
    <v>       0.00677818       0.50590982       0.99326543 </v>
    <v>       0.99688811       0.99507023       0.50245782 </v>
    <v>       0.11953783       0.87966307       0.63027486 </v>
    <v>       0.12214078       0.12571638       0.39089653 </v>
    <v>       0.88149452       0.87641184       0.37156097 </v>
    <v>       0.86484342       0.11329126       0.61885211 </v>
    <v>       0.88832909       0.63687633       0.11171451 </v>
    <v>       0.88327819       0.38536251       0.87074461 </v>
    <v>       0.12069197       0.64320026       0.87935163 </v>
    <v>       0.12929899       0.38536251       0.11676541 </v>
    <v>       0.60914707       0.12571638       0.87790282 </v>
    <v>       0.62848263       0.87641184       0.11854908 </v>
    <v>       0.38119149       0.11329126       0.13520018 </v>
    <v>       0.36976874       0.87966307       0.88050577 </v>
    <v>       0.63335751       0.60751008       0.36668609 </v>
    <v>       0.63750823       0.37120712       0.61304647 </v>
    <v>       0.38738869       0.60779468       0.61265491 </v>
    <v>       0.38699713       0.37120712       0.36253537 </v>
    <v>       0.73743080       0.75112057       0.75326409 </v>
    <v>       0.76325268       0.24058485       0.23679092 </v>
    <v>       0.24677951       0.75112057       0.26261280 </v>
    <v>       0.25801824       0.25013997       0.74202536 </v>
    <v>       0.01513627       0.03684978       0.98490733 </v>
    <v>       0.00730216       0.50225246       0.49549995 </v>
    <v>       0.51152386       0.96120741       0.48851974 </v>
    <v>       0.50454365       0.50225246       0.99274144 </v>
   </varray>
  </structure>
  <varray name="forces" >
   <v>      -0.00004789      -0.00092847      -0.00000673 </v>
   <v>      -0.00043645       0.00055810       0.00095159 </v>
   <v>      -0.00026421      -0.00010080       0.00001031 </v>
   <v>       0.00011037      -0.00130013       0.00064548 </v>
   <v>      -0.00001031      -0.00010080       0.00026421 </v>
   <v>      -0.00095159       0.00055810       0.00043645 </v>
   <v>       0.00000673      -0.00092847       0.00004789 </v>
   <v>      -0.00064548      -0.00130013      -0.00011037 </v>
   <v>       0.00019300      -0.00007371       0.00095173 </v>
   <v>       0.00055370      -0.00006202      -0.00055370 </v>
   <v>      -0.00095173      -0.00007371      -0.00019300 </v>
   <v>      -0.00019632       0.00004042       0.00019632 </v>
   <v>      -0.00005315       0.00043525       0.00045862 </v>
   <v>       0.00077816       0.00072136       0.00012369 </v>
   <v>       0.00094120       0.00001601      -0.00020688 </v>
   <v>       0.00146607       0.00039897      -0.00026603 </v>
   <v>      -0.00016576      -0.00016325       0.00016576 </v>
   <v>      -0.00007316      -0.00008263       0.00002926 </v>
   <v>       0.00057845       0.00008212      -0.00057845 </v>
   <v>      -0.00002926      -0.00008263       0.00007316 </v>
   <v>      -0.00012369       0.00072136      -0.00077816 </v>
[...]
       <r>     7.8669     9.9125   143.8626 </r>
       <r>     8.0594    14.5458   146.6624 </r>
       <r>     8.2519    15.1763   149.5838 </r>
       <r>     8.4444    15.2077   152.5151 </r>
       <r>     8.6369    12.6012   154.9426 </r>
       <r>     8.8293    15.2801   157.8874 </r>
       <r>     9.0218    20.8245   161.8957 </r>
       <r>     9.2143    16.9354   165.1559 </r>
       <r>     9.4068    18.0761   168.6363 </r>
       <r>     9.5992    17.4657   171.9982 </r>
       <r>     9.7917    15.9978   175.0775 </r>
       <r>     9.9842     4.7682   176.0000 </r>
       <r>    10.1767     0.0000   176.0000 </r>
       <r>    10.3692     0.0000   176.0000 </r>
       <r>    10.5616     0.0000   176.0000 </r>
       <r>    10.7541     0.0000   176.0000 </r>
       <r>    10.9466     0.0000   176.0000 </r>
       <r>    11.1391     0.0000   176.0000 </r>
       <r>    11.3315     0.0000   176.0000 </r>
       <r>    11.5240     0.0000   176.0000 </r>
       <r>    11.7165     0.0000   176.0000 </r>
       <r>    11.9090     0.0000   176.0000 </r>
       <r>    12.1015     0.0000   176.0000 </r>
       <r>    12.2939     0.0000   176.0000 </r>
       <r>    12.4864     0.0000   176.0000 </r>
      </set>
      <set comment="spin 2">
       <r>   -45.2569     0.0000     0.0000 </r>
       <r>   -45.0644     0.0000     0.0000 </r>
       <r>   -44.8720     0.0000     0.0000 </r>
       <r>   -44.6795     0.0000     0.0000 </r>
       <r>   -44.4870     0.0000     0.0000 </r>
       <r>   -44.2945     0.0000     0.0000 </r>
       <r>   -44.1021     0.0000     0.0000 </r>
       <r>   -43.9096     0.0000     0.0000 </r>
       <r>   -43.7171     0.0000     0.0000 </r>
       <r>   -43.5246     0.0000     0.0000 </r>
       <r>   -43.3321     0.0000     0.0000 </r>
       <r>   -43.1397     0.0000     0.0000 </r>
       <r>   -42.9472     0.0000     0.0000 </r>
       <r>   -42.7547     0.0000     0.0000 </r>
       <r>   -42.5622    21.2170     4.0838 </r>
       <r>   -42.3698    88.8200    21.1802 </r>
       <r>   -42.1773    14.6436    24.0000 </r>
       <r>   -41.9848     0.0000    24.0000 </r>
       <r>   -41.7923     0.0000    24.0000 </r>
       <r>   -41.5998     0.0000    24.0000 </r>
       <r>   -41.4074     0.0000    24.0000 </r>
       <r>   -41.2149     0.0000    24.0000 </r>
       <r>   -41.0224     0.0000    24.0000 </r>
       <r>   -40.8299     0.0000    24.0000 </r>
       <r>   -40.6375     0.0000    24.0000 </r>
       <r>   -40.4450     0.0000    24.0000 </r>
       <r>   -40.2525     0.0000    24.0000 </r>
       <r>   -40.0600     0.0000    24.0000 </r>
       <r>   -39.8675     0.0000    24.0000 </r>
       <r>   -39.6751     0.0000    24.0000 </r>
       <r>   -39.4826     0.0000    24.0000 </r>
       <r>   -39.2901     0.0000    24.0000 </r>
       <r>   -39.0976     0.0000    24.0000 </r>
       <r>   -38.9052     0.0000    24.0000 </r>
       <r>   -38.7127     0.0000    24.0000 </r>
       <r>   -38.5202     0.0000    24.0000 </r>
       <r>   -38.3277     0.0000    24.0000 </r>
       <r>   -38.1352     0.0000    24.0000 </r>
       <r>   -37.9428     0.0000    24.0000 </r>
       <r>   -37.7503     0.0000    24.0000 </r>
       <r>   -37.5578     0.0000    24.0000 </r>
       <r>   -37.3653     0.0000    24.0000 </r>
       <r>   -37.1729     0.0000    24.0000 </r>
       <r>   -36.9804     0.0000    24.0000 </r>
       <r>   -36.7879     0.0000    24.0000 </r>
       <r>   -36.5954     0.0000    24.0000 </r>
       <r>   -36.4029     0.0000    24.0000 </r>
       <r>   -36.2105     0.0000    24.0000 </r>
       <r>   -36.0180     0.0000    24.0000 </r>
       <r>   -35.8255     0.0000    24.0000 </r>
       <r>   -35.6330     0.0000    24.0000 </r>
       <r>   -35.4406     0.0000    24.0000 </r>
       <r>   -35.2481     0.0000    24.0000 </r>
       <r>   -35.0556     0.0000    24.0000 </r>
       <r>   -34.8631     0.0000    24.0000 </r>
       <r>   -34.6706     0.0000    24.0000 </r>
       <r>   -34.4782     0.0000    24.0000 </r>
       <r>   -34.2857     0.0000    24.0000 </r>
       <r>   -34.0932     0.0000    24.0000 </r>
       <r>   -33.9007     0.0000    24.0000 </r>
       <r>   -33.7083     0.0000    24.0000 </r>
       <r>   -33.5158     0.0000    24.0000 </r>
       <r>   -33.3233     0.0000    24.0000 </r>
       <r>   -33.1308     0.0000    24.0000 </r>
       <r>   -32.9383     0.0000    24.0000 </r>
       <r>   -32.7459     0.0000    24.0000 </r>
       <r>   -32.5534     0.0000    24.0000 </r>
       <r>   -32.3609     0.0000    24.0000 </r>
       <r>   -32.1684     0.0000    24.0000 </r>
       <r>   -31.9760     0.0000    24.0000 </r>
       <r>   -31.7835     0.0000    24.0000 </r>
       <r>   -31.5910     0.0000    24.0000 </r>
       <r>   -31.3985     0.0000    24.0000 </r>
       <r>   -31.2060     0.0000    24.0000 </r>
       <r>   -31.0136     0.0000    24.0000 </r>
       <r>   -30.8211     0.0000    24.0000 </r>
       <r>   -30.6286     0.0000    24.0000 </r>
       <r>   -30.4361     0.0000    24.0000 </r>
       <r>   -30.2437     0.0000    24.0000 </r>
       <r>   -30.0512     0.0000    24.0000 </r>
       <r>   -29.8587     0.0000    24.0000 </r>
       <r>   -29.6662     0.0000    24.0000 </r>
       <r>   -29.4737     0.0000    24.0000 </r>
       <r>   -29.2813     0.0000    24.0000 </r>
       <r>   -29.0888     0.0000    24.0000 </r>
       <r>   -28.8963     0.0000    24.0000 </r>
       <r>   -28.7038     0.0000    24.0000 </r>
       <r>   -28.5114     0.0000    24.0000 </r>
       <r>   -28.3189     0.0000    24.0000 </r>
       <r>   -28.1264     0.0000    24.0000 </r>
       <r>   -27.9339     0.0000    24.0000 </r>
       <r>   -27.7414     0.0000    24.0000 </r>
       <r>   -27.5490     0.0000    24.0000 </r>
       <r>   -27.3565     0.0000    24.0000 </r>
       <r>   -27.1640     0.0000    24.0000 </r>
       <r>   -26.9715     0.0000    24.0000 </r>
       <r>   -26.7791     0.0000    24.0000 </r>
       <r>   -26.5866     0.0000    24.0000 </r>
       <r>   -26.3941     0.0000    24.0000 </r>
       <r>   -26.2016     0.0000    24.0000 </r>
       <r>   -26.0091     0.0000    24.0000 </r>
       <r>   -25.8167     0.0000    24.0000 </r>
       <r>   -25.6242     0.0000    24.0000 </r>
       <r>   -25.4317     0.0000    24.0000 </r>
       <r>   -25.2392     0.0000    24.0000 </r>
       <r>   -25.0468     0.0000    24.0000 </r>
       <r>   -24.8543     0.0000    24.0000 </r>
       <r>   -24.6618     0.0000    24.0000 </r>
       <r>   -24.4693     0.0000    24.0000 </r>
       <r>   -24.2768     0.0000    24.0000 </r>
       <r>   -24.0844     0.0000    24.0000 </r>
       <r>   -23.8919     0.0000    24.0000 </r>
       <r>   -23.6994     0.0000    24.0000 </r>
       <r>   -23.5069     0.0000    24.0000 </r>
       <r>   -23.3145     0.0000    24.0000 </r>
       <r>   -23.1220     0.0000    24.0000 </r>
       <r>   -22.9295     0.0000    24.0000 </r>
       <r>   -22.7370     0.0000    24.0000 </r>
       <r>   -22.5445     0.0000    24.0000 </r>
       <r>   -22.3521     0.0000    24.0000 </r>
       <r>   -22.1596     0.0000    24.0000 </r>
       <r>   -21.9671     0.0000    24.0000 </r>
       <r>   -21.7746     0.0000    24.0000 </r>
       <r>   -21.5822     0.0000    24.0000 </r>
       <r>   -21.3897     0.0000    24.0000 </r>
       <r>   -21.1972     0.0000    24.0000 </r>
       <r>   -21.0047     0.0000    24.0000 </r>
       <r>   -20.8122     0.0000    24.0000 </r>
       <r>   -20.6198     0.0000    24.0000 </r>
       <r>   -20.4273     0.0000    24.0000 </r>
       <r>   -20.2348     0.0000    24.0000 </r>
       <r>   -20.0423     0.0000    24.0000 </r>
       <r>   -19.8499     0.0000    24.0000 </r>
       <r>   -19.6574     0.0000    24.0000 </r>
       <r>   -19.4649     0.0000    24.0000 </r>
       <r>   -19.2724     0.0000    24.0000 </r>
       <r>   -19.0799     0.0000    24.0000 </r>
       <r>   -18.8875     0.0000    24.0000 </r>
       <r>   -18.6950     0.0000    24.0000 </r>
       <r>   -18.5025     0.0000    24.0000 </r>
       <r>   -18.3100     0.0000    24.0000 </r>
       <r>   -18.1176     0.0000    24.0000 </r>
       <r>   -17.9251     0.0000    24.0000 </r>
       <r>   -17.7326     0.0000    24.0000 </r>
       <r>   -17.5401     0.0000    24.0000 </r>
       <r>   -17.3476     0.0000    24.0000 </r>
       <r>   -17.1552     0.0000    24.0000 </r>
       <r>   -16.9627     0.0000    24.0000 </r>
       <r>   -16.7702     0.0000    24.0000 </r>
       <r>   -16.5777     0.0000    24.0000 </r>
       <r>   -16.3853     0.0000    24.0000 </r>
       <r>   -16.1928     0.0000    24.0000 </r>
       <r>   -16.0003     0.0000    24.0000 </r>
       <r>   -15.8078     0.0000    24.0000 </r>
       <r>   -15.6153     0.0000    24.0000 </r>
       <r>   -15.4229     0.0000    24.0000 </r>
       <r>   -15.2304     0.0000    24.0000 </r>
       <r>   -15.0379     0.0000    24.0000 </r>
       <r>   -14.8454     0.0000    24.0000 </r>
       <r>   -14.6530     0.0000    24.0000 </r>
       <r>   -14.4605     0.0000    24.0000 </r>
       <r>   -14.2680     0.0000    24.0000 </r>
       <r>   -14.0755     0.0000    24.0000 </r>
       <r>   -13.8830     0.0000    24.0000 </r>
       <r>   -13.6906     0.0000    24.0000 </r>
       <r>   -13.4981     0.0000    24.0000 </r>
       <r>   -13.3056     0.0000    24.0000 </r>
       <r>   -13.1131     2.6898    24.5177 </r>
       <r>   -12.9207    18.0918    28.0000 </r>
       <r>   -12.7282     0.2628    28.0506 </r>
       <r>   -12.5357    10.1275    29.9999 </r>
       <r>   -12.3432    10.3878    32.0000 </r>
       <r>   -12.1507     0.0000    32.0000 </r>
       <r>   -11.9583     0.0000    32.0000 </r>
       <r>   -11.7658     0.0000    32.0000 </r>
       <r>   -11.5733     0.0000    32.0000 </r>
       <r>   -11.3808     0.0000    32.0000 </r>
       <r>   -11.1884     0.0000    32.0000 </r>
       <r>   -10.9959     0.0000    32.0000 </r>
       <r>   -10.8034     0.0000    32.0000 </r>
       <r>   -10.6109     0.0000    32.0000 </r>
       <r>   -10.4184     0.0457    32.0088 </r>
       <r>   -10.2260    16.4365    35.1725 </r>
       <r>   -10.0335    26.1876    40.2133 </r>
       <r>    -9.8410    19.6701    44.0000 </r>
       <r>    -9.6485     0.0000    44.0000 </r>
       <r>    -9.4561     0.0000    44.0000 </r>
       <r>    -9.2636     0.0000    44.0000 </r>
       <r>    -9.0711     0.0000    44.0000 </r>
       <r>    -8.8786     0.0000    44.0000 </r>
       <r>    -8.6861     0.0000    44.0000 </r>
       <r>    -8.4937     2.5071    44.4826 </r>
       <r>    -8.3012    18.2646    47.9981 </r>
       <r>    -8.1087     0.0000    48.0000 </r>
       <r>    -7.9162     0.0000    48.0000 </r>
       <r>    -7.7238     0.0000    48.0000 </r>
       <r>    -7.5313     0.0000    48.0000 </r>
       <r>    -7.3388     0.0000    48.0000 </r>
       <r>    -7.1463     0.0000    48.0000 </r>
       <r>    -6.9538     0.0000    48.0000 </r>
       <r>    -6.7614     0.0000    48.0000 </r>
       <r>    -6.5689     0.0000    48.0000 </r>
       <r>    -6.3764     0.0000    48.0000 </r>
       <r>    -6.1839     3.8779    48.7464 </r>
       <r>    -5.9915     1.3176    49.0000 </r>
       <r>    -5.7990     2.4438    49.4704 </r>
       <r>    -5.6065    13.1424    52.0000 </r>
       <r>    -5.4140     0.0000    52.0000 </r>
       <r>    -5.2215     0.0000    52.0000 </r>
       <r>    -5.0291     0.0000    52.0000 </r>
       <r>    -4.8366     0.0000    52.0000 </r>
       <r>    -4.6441     0.0000    52.0000 </r>
       <r>    -4.4516     0.0000    52.0000 </r>
       <r>    -4.2592     0.0000    52.0000 </r>
       <r>    -4.0667     0.0000    52.0000 </r>
       <r>    -3.8742     0.0000    52.0000 </r>
       <r>    -3.6817     0.0000    52.0000 </r>
       <r>    -3.4892     0.0000    52.0000 </r>
       <r>    -3.2968     4.0369    52.7770 </r>
       <r>    -3.1043    11.5493    55.0000 </r>
       <r>    -2.9118     3.1280    55.6021 </r>
       <r>    -2.7193    10.3360    57.5915 </r>
       <r>    -2.5269    12.5499    60.0083 </r>
       <r>    -2.3344    20.7044    63.9936 </r>
       <r>    -2.1419     0.0329    64.0000 </r>
       <r>    -1.9494     0.0000    64.0000 </r>
       <r>    -1.7569     0.0000    64.0000 </r>
       <r>    -1.5645     5.4268    65.0445 </r>
       <r>    -1.3720    17.0863    68.3336 </r>
       <r>    -1.1795    18.0529    71.8089 </r>
       <r>    -0.9870    16.0536    74.8990 </r>
       <r>    -0.7946     5.7170    76.0000 </r>
       <r>    -0.6021     5.0253    76.9673 </r>
       <r>    -0.4096    11.8853    79.2549 </r>
       <r>    -0.2171    10.7853    81.3308 </r>
       <r>    -0.0246    30.8910    87.2767 </r>
       <r>     0.1678    24.4951    91.9958 </r>
       <r>     0.3603    16.0623    95.0896 </r>
       <r>     0.5528     4.7281    96.0000 </r>
       <r>     0.7453     8.2746    97.5927 </r>
       <r>     0.9377    23.6096   102.1393 </r>
       <r>     1.1302    22.9977   106.5672 </r>
       <r>     1.3227    32.1576   112.7601 </r>
       <r>     1.5152    28.6047   118.2676 </r>
       <r>     1.7077     8.5299   119.9183 </r>
       <r>     1.9001     0.4243   120.0000 </r>
       <r>     2.0926     0.0000   120.0000 </r>
       <r>     2.2851     0.0000   120.0000 </r>
       <r>     2.4776     0.0000   120.0000 </r>
       <r>     2.6700     0.0000   120.0000 </r>
       <r>     2.8625     0.0000   120.0000 </r>
       <r>     3.0550     0.0000   120.0000 </r>
       <r>     3.2475     0.0000   120.0000 </r>
       <r>     3.4400     0.0000   120.0000 </r>
       <r>     3.6324     0.0000   120.0000 </r>
       <r>     3.8249     0.0000   120.0000 </r>
       <r>     4.0174     0.0000   120.0000 </r>
       <r>     4.2099     0.0000   120.0000 </r>
       <r>     4.4023     5.1753   120.9961 </r>
       <r>     4.5948     0.0000   121.0000 </r>
       <r>     4.7873     0.0000   121.0000 </r>
       <r>     4.9798     0.0000   121.0000 </r>
       <r>     5.1723     4.0882   121.7869 </r>
       <r>     5.3647    11.4872   124.0000 </r>
       <r>     5.5572     0.0000   124.0000 </r>
       <r>     5.7497     0.0202   124.0039 </r>
       <r>     5.9422    10.3361   125.9934 </r>
       <r>     6.1346    16.8404   129.2348 </r>
       <r>     6.3271     4.0615   130.0187 </r>
       <r>     6.5196    11.2838   132.1906 </r>
       <r>     6.7121     7.0346   133.5454 </r>
       <r>     6.9046    12.7488   135.9993 </r>
       <r>     7.0970     5.0983   136.9813 </r>
       <r>     7.2895     2.7377   137.5135 </r>
       <r>     7.4820    10.2392   139.4861 </r>
       <r>     7.6745    12.8170   141.9541 </r>
       <r>     7.8669     9.9125   143.8626 </r>
       <r>     8.0594    14.5458   146.6624 </r>
       <r>     8.2519    15.1763   149.5838 </r>
       <r>     8.4444    15.2077   152.5151 </r>
       <r>     8.6369    12.6012   154.9426 </r>
       <r>     8.8293    15.2801   157.8874 </r>
       <r>     9.0218    20.8245   161.8957 </r>
       <r>     9.2143    16.9354   165.1559 </r>
       <r>     9.4068    18.0761   168.6363 </r>
       <r>     9.5992    17.5454   172.0135 </r>
       <r>     9.7917    16.0839   175.1094 </r>
       <r>     9.9842     4.5976   176.0000 </r>
       <r>    10.1767     0.0000   176.0000 </r>
       <r>    10.3692     0.0000   176.0000 </r>
       <r>    10.5616     0.0000   176.0000 </r>
       <r>    10.7541     0.0000   176.0000 </r>
       <r>    10.9466     0.0000   176.0000 </r>
       <r>    11.1391     0.0000   176.0000 </r>
       <r>    11.3315     0.0000   176.0000 </r>
       <r>    11.5240     0.0000   176.0000 </r>
       <r>    11.7165     0.0000   176.0000 </r>
       <r>    11.9090     0.0000   176.0000 </r>
       <r>    12.1015     0.0000   176.0000 </r>
       <r>    12.2939     0.0000   176.0000 </r>
       <r>    12.4864     0.0000   176.0000 </r>
      </set>
     </set>
    </array>
   </total>
  </dos>
 </calculation>
 <structure name="finalpos" >
  <crystal>
   <varray name="basis" >
    <v>       9.68951159       0.00000000       0.00000000 </v>
    <v>       0.00000000       9.68951159       0.00000000 </v>
    <v>       0.00000000       0.00000000       9.68951159 </v>
   </varray>
   <i name="volume">    909.71563715 </i>
   <varray name="rec_basis" >
    <v>       0.10320438       0.00000000       0.00000000 </v>
    <v>       0.00000000       0.10320438       0.00000000 </v>
    <v>       0.00000000       0.00000000       0.10320438 </v>
   </varray>
  </crystal>
  <varray name="positions" >
   <v>       0.99341033       0.18400183       0.19664859 </v>
   <v>       0.95423823       0.83289872       0.81780798 </v>
   <v>       0.02683781       0.19853001       0.78041129 </v>
   <v>       0.02003091       0.67814013       0.30582149 </v>
   <v>       0.21963231       0.19853001       0.97320579 </v>
   <v>       0.18223562       0.83289872       0.04580537 </v>
   <v>       0.80339501       0.18400183       0.00663327 </v>
   <v>       0.69422211       0.67814013       0.98001269 </v>
   <v>       0.30201946       0.97679357       0.33041503 </v>
   <v>       0.32474211       0.02762081       0.67530149 </v>
   <v>       0.66962857       0.97679357       0.69802414 </v>
   <v>       0.68471529       0.03039608       0.31532831 </v>
   <v>       0.20124294       0.69146758       0.49084908 </v>
   <v>       0.19375453       0.32416877       0.51718760 </v>
   <v>       0.70807705       0.77760828       0.51960814 </v>
   <v>       0.82950180       0.30108749       0.46224329 </v>
   <v>       0.24108263       0.48013713       0.75896097 </v>
   <v>       0.32110459       0.53887841       0.17223317 </v>
   <v>       0.77171706       0.46962005       0.22832654 </v>
   <v>       0.82781043       0.53887841       0.67893902 </v>
   <v>       0.48285600       0.32416877       0.80628907 </v>
   <v>       0.48043547       0.77760828       0.29196655 </v>
   <v>       0.53780031       0.30108749       0.17054180 </v>
   <v>       0.50919452       0.69146758       0.79880066 </v>
   <v>       0.51055743       0.48470826       0.48948617 </v>
   <v>       0.49758416       0.99507131       0.00315565 </v>
   <v>       0.00677593       0.50591366       0.99326767 </v>
   <v>       0.99688795       0.99507131       0.50245944 </v>
   <v>       0.11953651       0.87966616       0.63028007 </v>
   <v>       0.12214267       0.12572229       0.39090176 </v>
   <v>       0.88150062       0.87641407       0.37155314 </v>
   <v>       0.86483731       0.11328912       0.61885126 </v>
   <v>       0.88833209       0.63688951       0.11171151 </v>
   <v>       0.88327255       0.38536367       0.87074896 </v>
   <v>       0.12069215       0.64320244       0.87935145 </v>
   <v>       0.12929464       0.38536367       0.11677105 </v>
   <v>       0.60914184       0.12572229       0.87790093 </v>
   <v>       0.62849046       0.87641407       0.11854298 </v>
   <v>       0.38119234       0.11328912       0.13520629 </v>
   <v>       0.36976353       0.87966616       0.88050709 </v>
   <v>       0.63336109       0.60750941       0.36668251 </v>
   <v>       0.63751343       0.37120318       0.61304224 </v>
   <v>       0.38738997       0.60778907       0.61265363 </v>
   <v>       0.38700136       0.37120318       0.36253017 </v>
   <v>       0.73742874       0.75112045       0.75326516 </v>
   <v>       0.76325290       0.24058402       0.23679070 </v>
   <v>       0.24677844       0.75112045       0.26261486 </v>
   <v>       0.25801760       0.25013636       0.74202600 </v>
   <v>       0.01513105       0.03683840       0.98491255 </v>
   <v>       0.00730406       0.50225153       0.49550401 </v>
   <v>       0.51152007       0.96121282       0.48852353 </v>
   <v>       0.50453959       0.50225153       0.99273954 </v>
  </varray>
 </structure>
</modeling>
