unknown system                          
           1
     9.689512    0.000000    0.000000
     0.000000    9.689512    0.000000
     0.000000    0.000000    9.689512
   Li   P    S    Cl
    24     4    20     4
Direct configuration=     1
   0.99341040  0.18401999  0.19664959
   0.95424547  0.83288762  0.81778950
   0.02684488  0.19853222  0.78040955
   0.02002832  0.67816604  0.30580747
   0.21963405  0.19853222  0.97319872
   0.18225411  0.83288762  0.04579813
   0.80339401  0.18401999  0.00663320
   0.69423613  0.67816604  0.98001528
   0.30201456  0.97679516  0.33039611
   0.32473104  0.02762238  0.67531256
   0.66964749  0.97679516  0.69802904
   0.68471909  0.03039680  0.31532451
   0.20124475  0.69145920  0.49083965
   0.19373864  0.32415376  0.51718545
   0.70805777  0.77760708  0.51961333
   0.82947205  0.30107894  0.46224899
   0.24108603  0.48014003  0.75895757
   0.32110568  0.53888085  0.17223315
   0.77170647  0.46961782  0.22833713
   0.82781045  0.53888085  0.67893793
   0.48285815  0.32415376  0.80630496
   0.48043027  0.77760708  0.29198583
   0.53779461  0.30107894  0.17057155
   0.50920395  0.69145920  0.79879885
   0.51055098  0.48471487  0.48949262
   0.49758565  0.99506881  0.00315547
   0.00677813  0.50590818  0.99326547
   0.99688814  0.99506881  0.50245795
   0.11953640  0.87966270  0.63026847
   0.12213779  0.12571043  0.39089371
   0.88149149  0.87641192  0.37156922
   0.86485027  0.11329100  0.61885085
   0.88832916  0.63686242  0.11171444
   0.88328453  0.38536306  0.87074358
   0.12069115  0.64319596  0.87935245
   0.12930002  0.38536306  0.11675907
   0.60914989  0.12571043  0.87790581
   0.62847438  0.87641192  0.11855211
   0.38119275  0.11329100  0.13519333
   0.36977513  0.87966270  0.88050721
   0.63335359  0.60751054  0.36669002
   0.63750175  0.37121276  0.61304683
   0.38738898  0.60779757  0.61265463
   0.38699677  0.37121276  0.36254185
   0.73743176  0.75112054  0.75326253
   0.76325294  0.24058615  0.23679066
   0.24678107  0.75112054  0.26261184
   0.25801781  0.25014352  0.74202579
   0.01514090  0.03686207  0.98490270
   0.00730078  0.50225356  0.49549654
   0.51152791  0.96120154  0.48851569
   0.50454706  0.50225356  0.99274282
Direct configuration=     2
   0.99341043  0.18401806  0.19664944
   0.95424474  0.83288883  0.81779149
   0.02684410  0.19853200  0.78040977
   0.02002862  0.67816324  0.30580904
   0.21963383  0.19853200  0.97319950
   0.18225211  0.83288883  0.04579886
   0.80339416  0.18401806  0.00663317
   0.69423456  0.67816324  0.98001498
   0.30201513  0.97679499  0.33039813
   0.32473225  0.02762221  0.67531135
   0.66964547  0.97679499  0.69802847
   0.68471869  0.03039668  0.31532491
   0.20124452  0.69146008  0.49084068
   0.19374035  0.32415542  0.51718568
   0.70805985  0.77760725  0.51961274
   0.82947528  0.30107989  0.46224837
   0.24108569  0.48013976  0.75895791
   0.32110558  0.53888056  0.17223312
   0.77170756  0.46961809  0.22833604
   0.82781049  0.53888056  0.67893802
   0.48285793  0.32415542  0.80630325
   0.48043086  0.77760725  0.29198375
   0.53779523  0.30107989  0.17056832
   0.50920292  0.69146008  0.79879908
   0.51055174  0.48471457  0.48949186
   0.49758568  0.99506917  0.00315547
   0.00677814  0.50590860  0.99326546
   0.99688813  0.99506917  0.50245792
   0.11953676  0.87966279  0.63027010
   0.12213855  0.12571195  0.39089443
   0.88149226  0.87641190  0.37156711
   0.86484852  0.11329106  0.61885117
   0.88832914  0.63686597  0.11171446
   0.88328292  0.38536292  0.87074384
   0.12069136  0.64319706  0.87935224
   0.12929976  0.38536292  0.11676069
   0.60914917  0.12571195  0.87790505
   0.62847649  0.87641190  0.11855134
   0.38119243  0.11329106  0.13519508
   0.36977350  0.87966279  0.88050684
   0.63335459  0.60751042  0.36668901
   0.63750341  0.37121132  0.61304674
   0.38738890  0.60779683  0.61265470
   0.38699686  0.37121132  0.36254019
   0.73743152  0.75112055  0.75326293
   0.76325287  0.24058582  0.23679073
   0.24678067  0.75112055  0.26261208
   0.25801792  0.25014261  0.74202568
   0.01513972  0.03685894  0.98490388
   0.00730113  0.50225328  0.49549741
   0.51152688  0.96120304  0.48851672
   0.50454619  0.50225328  0.99274247
Direct configuration=     3
   0.99341046  0.18401637  0.19664931
   0.95424411  0.83288989  0.81779323
   0.02684343  0.19853181  0.78040997
   0.02002888  0.67816080  0.30581040
   0.21963363  0.19853181  0.97320017
   0.18225038  0.83288989  0.04579949
   0.80339429  0.18401637  0.00663314
   0.69423320  0.67816080  0.98001472
   0.30201563  0.97679485  0.33039990
   0.32473331  0.02762206  0.67531029
   0.66964370  0.97679485  0.69802797
   0.68471835  0.03039657  0.31532526
   0.20124431  0.69146085  0.49084158
   0.19374185  0.32415686  0.51718587
   0.70806166  0.77760740  0.51961223
   0.82947810  0.30108073  0.46224782
   0.24108539  0.48013953  0.75895821
   0.32110550  0.53888031  0.17223309
   0.77170851  0.46961832  0.22833509
   0.82781051  0.53888031  0.67893810
   0.48285773  0.32415686  0.80630175
   0.48043137  0.77760740  0.29198194
   0.53779578  0.30108073  0.17056550
   0.50920203  0.69146085  0.79879929
   0.51055240  0.48471430  0.48949120
   0.49758571  0.99506949  0.00315548
   0.00677815  0.50590896  0.99326545
   0.99688812  0.99506949  0.50245789
   0.11953708  0.87966288  0.63027153
   0.12213922  0.12571327  0.39089506
   0.88149294  0.87641188  0.37156528
   0.86484700  0.11329112  0.61885145
   0.88832912  0.63686907  0.11171448
   0.88328150  0.38536280  0.87074407
   0.12069154  0.64319802  0.87935206
   0.12929953  0.38536280  0.11676210
   0.60914854  0.12571327  0.87790438
   0.62847832  0.87641188  0.11855066
   0.38119215  0.11329112  0.13519660
   0.36977208  0.87966288  0.88050652
   0.63335546  0.60751032  0.36668814
   0.63750485  0.37121006  0.61304666
   0.38738884  0.60779619  0.61265476
   0.38699694  0.37121006  0.36253875
   0.73743130  0.75112056  0.75326327
   0.76325282  0.24058553  0.23679079
   0.24678033  0.75112056  0.26261230
   0.25801802  0.25014182  0.74202558
   0.01513869  0.03685620  0.98490491
   0.00730144  0.50225304  0.49549817
   0.51152598  0.96120434  0.48851762
   0.50454543  0.50225304  0.99274216
Direct configuration=     4
   0.99341051  0.18401299  0.19664905
   0.95424285  0.83289200  0.81779670
   0.02684207  0.19853143  0.78041036
   0.02002940  0.67815592  0.30581314
   0.21963324  0.19853143  0.97320153
   0.18224690  0.83289200  0.04580076
   0.80339455  0.18401299  0.00663310
   0.69423046  0.67815592  0.98001420
   0.30201662  0.97679456  0.33040343
   0.32473542  0.02762176  0.67530818
   0.66964017  0.97679456  0.69802698
   0.68471765  0.03039635  0.31532595
   0.20124390  0.69146239  0.49084337
   0.19374483  0.32415974  0.51718626
   0.70806528  0.77760770  0.51961120
   0.82948373  0.30108240  0.46224674
   0.24108479  0.48013906  0.75895881
   0.32110533  0.53887981  0.17223303
   0.77171041  0.46961878  0.22833320
   0.82781057  0.53887981  0.67893827
   0.48285734  0.32415974  0.80629877
   0.48043240  0.77760770  0.29197833
   0.53779687  0.30108240  0.17055987
   0.50920023  0.69146239  0.79879970
   0.51055372  0.48471377  0.48948988
   0.49758577  0.99507012  0.00315549
   0.00677817  0.50590970  0.99326543
   0.99688811  0.99507012  0.50245783
   0.11953772  0.87966304  0.63027437
   0.12214055  0.12571592  0.39089631
   0.88149429  0.87641185  0.37156160
   0.86484394  0.11329124  0.61885201
   0.88832909  0.63687526  0.11171451
   0.88327867  0.38536255  0.87074453
   0.12069191  0.64319993  0.87935169
   0.12929907  0.38536255  0.11676493
   0.60914729  0.12571592  0.87790305
   0.62848200  0.87641185  0.11854931
   0.38119159  0.11329124  0.13519966
   0.36976923  0.87966304  0.88050588
   0.63335721  0.60751011  0.36668639
   0.63750774  0.37120755  0.61304650
   0.38738871  0.60779490  0.61265489
   0.38699710  0.37120755  0.36253587
   0.73743087  0.75112057  0.75326397
   0.76325270  0.24058495  0.23679090
   0.24677963  0.75112057  0.26261273
   0.25801821  0.25014024  0.74202539
   0.01513662  0.03685072  0.98490698
   0.00730205  0.50225255  0.49549969
   0.51152417  0.96120696  0.48851943
   0.50454391  0.50225255  0.99274155
Direct configuration=     5
   0.99341051  0.18401241  0.19664901
   0.95424263  0.83289237  0.81779730
   0.02684184  0.19853136  0.78041043
   0.02002949  0.67815508  0.30581361
   0.21963317  0.19853136  0.97320176
   0.18224630  0.83289237  0.04580097
   0.80339459  0.18401241  0.00663309
   0.69422999  0.67815508  0.98001411
   0.30201679  0.97679451  0.33040404
   0.32473579  0.02762171  0.67530781
   0.66963956  0.97679451  0.69802681
   0.68471753  0.03039632  0.31532607
   0.20124383  0.69146266  0.49084367
   0.19374535  0.32416024  0.51718633
   0.70806590  0.77760775  0.51961102
   0.82948470  0.30108268  0.46224655
   0.24108469  0.48013898  0.75895891
   0.32110531  0.53887972  0.17223302
   0.77171073  0.46961886  0.22833287
   0.82781058  0.53887972  0.67893830
   0.48285728  0.32416024  0.80629825
   0.48043258  0.77760775  0.29197770
   0.53779705  0.30108268  0.17055890
   0.50919993  0.69146266  0.79879977
   0.51055395  0.48471367  0.48948966
   0.49758578  0.99507023  0.00315549
   0.00677818  0.50590982  0.99326543
   0.99688811  0.99507023  0.50245782
   0.11953783  0.87966307  0.63027486
   0.12214078  0.12571638  0.39089653
   0.88149452  0.87641184  0.37156097
   0.86484342  0.11329126  0.61885211
   0.88832909  0.63687633  0.11171451
   0.88327819  0.38536251  0.87074461
   0.12069197  0.64320026  0.87935163
   0.12929899  0.38536251  0.11676541
   0.60914707  0.12571638  0.87790282
   0.62848263  0.87641184  0.11854908
   0.38119149  0.11329126  0.13520018
   0.36976874  0.87966307  0.88050577
   0.63335751  0.60751008  0.36668609
   0.63750823  0.37120712  0.61304647
   0.38738869  0.60779468  0.61265491
   0.38699713  0.37120712  0.36253537
   0.73743080  0.75112057  0.75326409
   0.76325268  0.24058485  0.23679092
   0.24677951  0.75112057  0.26261280
   0.25801824  0.25013997  0.74202536
   0.01513627  0.03684978  0.98490733
   0.00730216  0.50225246  0.49549995
   0.51152386  0.96120741  0.48851974
   0.50454365  0.50225246  0.99274144
Direct configuration=     6
   0.99341053  0.18401125  0.19664892
   0.95424219  0.83289310  0.81779850
   0.02684137  0.19853123  0.78041057
   0.02002967  0.67815340  0.30581455
   0.21963303  0.19853123  0.97320223
   0.18224510  0.83289310  0.04580141
   0.80339468  0.18401125  0.00663307
   0.69422905  0.67815340  0.98001394
   0.30201714  0.97679442  0.33040525
   0.32473651  0.02762160  0.67530709
   0.66963835  0.97679442  0.69802646
   0.68471729  0.03039624  0.31532631
   0.20124369  0.69146318  0.49084429
   0.19374637  0.32416123  0.51718646
   0.70806714  0.77760785  0.51961067
   0.82948664  0.30108326  0.46224617
   0.24108448  0.48013882  0.75895912
   0.32110525  0.53887955  0.17223300
   0.77171138  0.46961902  0.22833222
   0.82781060  0.53887955  0.67893835
   0.48285714  0.32416123  0.80629723
   0.48043293  0.77760785  0.29197646
   0.53779743  0.30108326  0.17055696
   0.50919931  0.69146318  0.79879991
   0.51055440  0.48471349  0.48948920
   0.49758580  0.99507045  0.00315550
   0.00677818  0.50591007  0.99326542
   0.99688810  0.99507045  0.50245780
   0.11953805  0.87966313  0.63027584
   0.12214124  0.12571729  0.39089696
   0.88149498  0.87641183  0.37155971
   0.86484237  0.11329129  0.61885230
   0.88832908  0.63687846  0.11171453
   0.88327721  0.38536242  0.87074477
   0.12069210  0.64320092  0.87935150
   0.12929883  0.38536242  0.11676639
   0.60914664  0.12571729  0.87790236
   0.62848389  0.87641183  0.11854862
   0.38119130  0.11329129  0.13520123
   0.36976776  0.87966313  0.88050555
   0.63335811  0.60751001  0.36668549
   0.63750923  0.37120625  0.61304641
   0.38738864  0.60779423  0.61265496
   0.38699719  0.37120625  0.36253438
   0.73743065  0.75112058  0.75326433
   0.76325264  0.24058465  0.23679096
   0.24677927  0.75112058  0.26261295
   0.25801830  0.25013942  0.74202530
   0.01513556  0.03684790  0.98490804
   0.00730237  0.50225229  0.49550048
   0.51152324  0.96120831  0.48852036
   0.50454312  0.50225229  0.99274123
Direct configuration=     7
   0.99341056  0.18400892  0.19664874
   0.95424132  0.83289455  0.81780089
   0.02684044  0.19853097  0.78041084
   0.02003002  0.67815003  0.30581643
   0.21963276  0.19853097  0.97320316
   0.18224271  0.83289455  0.04580228
   0.80339486  0.18400892  0.00663304
   0.69422717  0.67815003  0.98001358
   0.30201782  0.97679422  0.33040769
   0.32473797  0.02762139  0.67530563
   0.66963592  0.97679422  0.69802578
   0.68471681  0.03039609  0.31532679
   0.20124340  0.69146424  0.49084552
   0.19374843  0.32416322  0.51718673
   0.70806963  0.77760806  0.51960996
   0.82949052  0.30108441  0.46224543
   0.24108407  0.48013849  0.75895953
   0.32110514  0.53887921  0.17223296
   0.77171269  0.46961934  0.22833091
   0.82781064  0.53887921  0.67893847
   0.48285687  0.32416322  0.80629517
   0.48043364  0.77760806  0.29197397
   0.53779818  0.30108441  0.17055308
   0.50919808  0.69146424  0.79880020
   0.51055531  0.48471312  0.48948829
   0.49758584  0.99507088  0.00315551
   0.00677819  0.50591058  0.99326541
   0.99688809  0.99507088  0.50245776
   0.11953849  0.87966324  0.63027780
   0.12214216  0.12571911  0.39089782
   0.88149591  0.87641181  0.37155718
   0.86484027  0.11329137  0.61885269
   0.88832905  0.63688273  0.11171455
   0.88327527  0.38536226  0.87074509
   0.12069235  0.64320224  0.87935125
   0.12929851  0.38536226  0.11676833
   0.60914578  0.12571911  0.87790144
   0.62848642  0.87641181  0.11854769
   0.38119091  0.11329137  0.13520334
   0.36976580  0.87966324  0.88050511
   0.63335932  0.60750986  0.36668429
   0.63751121  0.37120452  0.61304630
   0.38738856  0.60779335  0.61265504
   0.38699730  0.37120452  0.36253239
   0.73743035  0.75112059  0.75326481
   0.76325256  0.24058425  0.23679104
   0.24677880  0.75112059  0.26261325
   0.25801844  0.25013834  0.74202517
   0.01513414  0.03684413  0.98490947
   0.00730279  0.50225196  0.49550152
   0.51152200  0.96121011  0.48852160
   0.50454208  0.50225196  0.99274081
Direct configuration=     8
   0.99341058  0.18400793  0.19664866
   0.95424095  0.83289518  0.81780192
   0.02684004  0.19853086  0.78041096
   0.02003018  0.67814859  0.30581724
   0.21963265  0.19853086  0.97320356
   0.18224168  0.83289518  0.04580265
   0.80339494  0.18400793  0.00663302
   0.69422636  0.67814859  0.98001342
   0.30201812  0.97679413  0.33040873
   0.32473859  0.02762130  0.67530501
   0.66963487  0.97679413  0.69802548
   0.68471661  0.03039603  0.31532699
   0.20124328  0.69146470  0.49084605
   0.19374931  0.32416407  0.51718684
   0.70807070  0.77760815  0.51960966
   0.82949218  0.30108490  0.46224511
   0.24108390  0.48013835  0.75895971
   0.32110509  0.53887906  0.17223295
   0.77171325  0.46961947  0.22833035
   0.82781065  0.53887906  0.67893851
   0.48285676  0.32416407  0.80629429
   0.48043395  0.77760815  0.29197290
   0.53779850  0.30108490  0.17055142
   0.50919755  0.69146470  0.79880032
   0.51055570  0.48471297  0.48948790
   0.49758586  0.99507106  0.00315551
   0.00677820  0.50591079  0.99326540
   0.99688809  0.99507106  0.50245774
   0.11953868  0.87966329  0.63027864
   0.12214255  0.12571989  0.39089819
   0.88149631  0.87641180  0.37155610
   0.86483936  0.11329141  0.61885285
   0.88832905  0.63688455  0.11171456
   0.88327443  0.38536218  0.87074522
   0.12069246  0.64320280  0.87935115
   0.12929838  0.38536218  0.11676917
   0.60914541  0.12571989  0.87790105
   0.62848750  0.87641180  0.11854729
   0.38119075  0.11329141  0.13520424
   0.36976496  0.87966329  0.88050492
   0.63335983  0.60750980  0.36668377
   0.63751206  0.37120378  0.61304625
   0.38738852  0.60779297  0.61265508
   0.38699735  0.37120378  0.36253154
   0.73743023  0.75112059  0.75326501
   0.76325253  0.24058408  0.23679107
   0.24677859  0.75112059  0.26261337
   0.25801849  0.25013787  0.74202511
   0.01513353  0.03684252  0.98491007
   0.00730297  0.50225181  0.49550197
   0.51152147  0.96121088  0.48852213
   0.50454163  0.50225181  0.99274063
Direct configuration=     9
   0.99341061  0.18400593  0.19664851
   0.95424020  0.83289642  0.81780397
   0.02683924  0.19853063  0.78041119
   0.02003048  0.67814571  0.30581885
   0.21963241  0.19853063  0.97320436
   0.18223963  0.83289642  0.04580340
   0.80339509  0.18400593  0.00663299
   0.69422475  0.67814571  0.98001312
   0.30201870  0.97679396  0.33041081
   0.32473984  0.02762113  0.67530376
   0.66963279  0.97679396  0.69802490
   0.68471620  0.03039590  0.31532740
   0.20124304  0.69146561  0.49084711
   0.19375107  0.32416577  0.51718707
   0.70807284  0.77760832  0.51960905
   0.82949550  0.30108588  0.46224446
   0.24108354  0.48013808  0.75896006
   0.32110499  0.53887876  0.17223292
   0.77171437  0.46961975  0.22832923
   0.82781069  0.53887876  0.67893861
   0.48285653  0.32416577  0.80629253
   0.48043455  0.77760832  0.29197076
   0.53779914  0.30108588  0.17054810
   0.50919649  0.69146561  0.79880056
   0.51055648  0.48471265  0.48948712
   0.49758589  0.99507144  0.00315552
   0.00677821  0.50591123  0.99326539
   0.99688808  0.99507144  0.50245771
   0.11953906  0.87966339  0.63028032
   0.12214334  0.12572145  0.39089893
   0.88149711  0.87641178  0.37155393
   0.86483756  0.11329148  0.61885318
   0.88832903  0.63688821  0.11171457
   0.88327277  0.38536204  0.87074549
   0.12069267  0.64320393  0.87935093
   0.12929811  0.38536204  0.11677083
   0.60914467  0.12572145  0.87790026
   0.62848967  0.87641178  0.11854650
   0.38119042  0.11329148  0.13520604
   0.36976329  0.87966339  0.88050454
   0.63336086  0.60750968  0.36668274
   0.63751377  0.37120230  0.61304616
   0.38738844  0.60779221  0.61265516
   0.38699744  0.37120230  0.36252984
   0.73742997  0.75112060  0.75326542
   0.76325246  0.24058373  0.23679114
   0.24677818  0.75112060  0.26261363
   0.25801860  0.25013694  0.74202500
   0.01513231  0.03683929  0.98491129
   0.00730334  0.50225152  0.49550287
   0.51152041  0.96121243  0.48852319
   0.50454073  0.50225152  0.99274027
Direct configuration=    10
   0.99341033  0.18400183  0.19664859
   0.95423823  0.83289872  0.81780798
   0.02683781  0.19853001  0.78041129
   0.02003091  0.67814013  0.30582149
   0.21963231  0.19853001  0.97320579
   0.18223562  0.83289872  0.04580537
   0.80339501  0.18400183  0.00663327
   0.69422211  0.67814013  0.98001269
   0.30201946  0.97679357  0.33041503
   0.32474211  0.02762081  0.67530149
   0.66962857  0.97679357  0.69802414
   0.68471529  0.03039608  0.31532831
   0.20124294  0.69146758  0.49084908
   0.19375453  0.32416877  0.51718760
   0.70807705  0.77760828  0.51960814
   0.82950180  0.30108749  0.46224329
   0.24108263  0.48013713  0.75896097
   0.32110459  0.53887841  0.17223317
   0.77171706  0.46962005  0.22832654
   0.82781043  0.53887841  0.67893902
   0.48285600  0.32416877  0.80628907
   0.48043547  0.77760828  0.29196655
   0.53780031  0.30108749  0.17054180
   0.50919452  0.69146758  0.79880066
   0.51055743  0.48470826  0.48948617
   0.49758416  0.99507131  0.00315565
   0.00677593  0.50591366  0.99326767
   0.99688795  0.99507131  0.50245944
   0.11953651  0.87966616  0.63028007
   0.12214267  0.12572229  0.39090176
   0.88150062  0.87641407  0.37155314
   0.86483731  0.11328912  0.61885126
   0.88833209  0.63688951  0.11171151
   0.88327255  0.38536367  0.87074896
   0.12069215  0.64320244  0.87935145
   0.12929464  0.38536367  0.11677105
   0.60914184  0.12572229  0.87790093
   0.62849046  0.87641407  0.11854298
   0.38119234  0.11328912  0.13520629
   0.36976353  0.87966616  0.88050709
   0.63336109  0.60750941  0.36668251
   0.63751343  0.37120318  0.61304224
   0.38738997  0.60778907  0.61265363
   0.38700136  0.37120318  0.36253017
   0.73742874  0.75112045  0.75326516
   0.76325290  0.24058402  0.23679070
   0.24677844  0.75112045  0.26261486
   0.25801760  0.25013636  0.74202600
   0.01513105  0.03683840  0.98491255
   0.00730406  0.50225153  0.49550401
   0.51152007  0.96121282  0.48852353
   0.50453959  0.50225153  0.99273954
