  52  52   0  16
  0.1727856E+02  0.9649475E-09  0.9649475E-09  0.9649475E-09  0.2000000E-15
  1.000000000000000E-004
  CAR 
 unknown system                          
     12.66595776    -45.23313529  301      2.07524865      1.00000000
    -45.233  0.0000E+00  0.0000E+00  0.0000E+00  0.0000E+00
    -45.040  0.0000E+00  0.0000E+00  0.0000E+00  0.0000E+00
    -44.847  0.0000E+00  0.0000E+00  0.0000E+00  0.0000E+00
    -44.654  0.0000E+00  0.0000E+00  0.0000E+00  0.0000E+00
    -44.461  0.0000E+00  0.0000E+00  0.0000E+00  0.0000E+00
    -44.268  0.0000E+00  0.0000E+00  0.0000E+00  0.0000E+00
    -44.075  0.0000E+00  0.0000E+00  0.0000E+00  0.0000E+00
    -43.882  0.0000E+00  0.0000E+00  0.0000E+00  0.0000E+00
    -43.689  0.0000E+00  0.0000E+00  0.0000E+00  0.0000E+00
    -43.496  0.0000E+00  0.0000E+00  0.0000E+00  0.0000E+00
    -43.303  0.0000E+00  0.0000E+00  0.0000E+00  0.0000E+00
    -43.110  0.0000E+00  0.0000E+00  0.0000E+00  0.0000E+00
    -42.917  0.0000E+00  0.0000E+00  0.0000E+00  0.0000E+00
    -42.724  0.1828E-10  0.1827E-10  0.3527E-11  0.3527E-11
    -42.531  0.9238E-02  0.9238E-02  0.1783E-02  0.1783E-02
    -42.338  0.4952E-01  0.4952E-01  0.1134E-01  0.1134E-01
    -42.145  0.6557E-01  0.6557E-01  0.2400E-01  0.2400E-01
    -41.952  0.0000E+00  0.0000E+00  0.2400E-01  0.2400E-01
    -41.759  0.0000E+00  0.0000E+00  0.2400E-01  0.2400E-01
    -41.566  0.0000E+00  0.0000E+00  0.2400E-01  0.2400E-01
    -41.373  0.0000E+00  0.0000E+00  0.2400E-01  0.2400E-01
    -41.180  0.0000E+00  0.0000E+00  0.2400E-01  0.2400E-01
    -40.987  0.0000E+00  0.0000E+00  0.2400E-01  0.2400E-01
    -40.794  0.0000E+00  0.0000E+00  0.2400E-01  0.2400E-01
    -40.601  0.0000E+00  0.0000E+00  0.2400E-01  0.2400E-01
    -40.408  0.0000E+00  0.0000E+00  0.2400E-01  0.2400E-01
    -40.215  0.0000E+00  0.0000E+00  0.2400E-01  0.2400E-01
    -40.022  0.0000E+00  0.0000E+00  0.2400E-01  0.2400E-01
    -39.829  0.0000E+00  0.0000E+00  0.2400E-01  0.2400E-01
    -39.636  0.0000E+00  0.0000E+00  0.2400E-01  0.2400E-01
    -39.443  0.0000E+00  0.0000E+00  0.2400E-01  0.2400E-01
    -39.250  0.0000E+00  0.0000E+00  0.2400E-01  0.2400E-01
    -39.057  0.0000E+00  0.0000E+00  0.2400E-01  0.2400E-01
    -38.864  0.0000E+00  0.0000E+00  0.2400E-01  0.2400E-01
    -38.671  0.0000E+00  0.0000E+00  0.2400E-01  0.2400E-01
    -38.478  0.0000E+00  0.0000E+00  0.2400E-01  0.2400E-01
    -38.285  0.0000E+00  0.0000E+00  0.2400E-01  0.2400E-01
    -38.092  0.0000E+00  0.0000E+00  0.2400E-01  0.2400E-01
    -37.899  0.0000E+00  0.0000E+00  0.2400E-01  0.2400E-01
    -37.706  0.0000E+00  0.0000E+00  0.2400E-01  0.2400E-01
    -37.513  0.0000E+00  0.0000E+00  0.2400E-01  0.2400E-01
    -37.320  0.0000E+00  0.0000E+00  0.2400E-01  0.2400E-01
    -37.127  0.0000E+00  0.0000E+00  0.2400E-01  0.2400E-01
    -36.934  0.0000E+00  0.0000E+00  0.2400E-01  0.2400E-01
    -36.741  0.0000E+00  0.0000E+00  0.2400E-01  0.2400E-01
    -36.548  0.0000E+00  0.0000E+00  0.2400E-01  0.2400E-01
    -36.355  0.0000E+00  0.0000E+00  0.2400E-01  0.2400E-01
    -36.162  0.0000E+00  0.0000E+00  0.2400E-01  0.2400E-01
    -35.969  0.0000E+00  0.0000E+00  0.2400E-01  0.2400E-01
    -35.776  0.0000E+00  0.0000E+00  0.2400E-01  0.2400E-01
    -35.583  0.0000E+00  0.0000E+00  0.2400E-01  0.2400E-01
    -35.390  0.0000E+00  0.0000E+00  0.2400E-01  0.2400E-01
    -35.197  0.0000E+00  0.0000E+00  0.2400E-01  0.2400E-01
    -35.004  0.0000E+00  0.0000E+00  0.2400E-01  0.2400E-01
    -34.811  0.0000E+00  0.0000E+00  0.2400E-01  0.2400E-01
    -34.618  0.0000E+00  0.0000E+00  0.2400E-01  0.2400E-01
    -34.425  0.0000E+00  0.0000E+00  0.2400E-01  0.2400E-01
    -34.232  0.0000E+00  0.0000E+00  0.2400E-01  0.2400E-01
    -34.039  0.0000E+00  0.0000E+00  0.2400E-01  0.2400E-01
    -33.846  0.0000E+00  0.0000E+00  0.2400E-01  0.2400E-01
    -33.653  0.0000E+00  0.0000E+00  0.2400E-01  0.2400E-01
    -33.460  0.0000E+00  0.0000E+00  0.2400E-01  0.2400E-01
    -33.267  0.0000E+00  0.0000E+00  0.2400E-01  0.2400E-01
    -33.074  0.0000E+00  0.0000E+00  0.2400E-01  0.2400E-01
    -32.881  0.0000E+00  0.0000E+00  0.2400E-01  0.2400E-01
    -32.688  0.0000E+00  0.0000E+00  0.2400E-01  0.2400E-01
    -32.495  0.0000E+00  0.0000E+00  0.2400E-01  0.2400E-01
    -32.302  0.0000E+00  0.0000E+00  0.2400E-01  0.2400E-01
    -32.109  0.0000E+00  0.0000E+00  0.2400E-01  0.2400E-01
    -31.916  0.0000E+00  0.0000E+00  0.2400E-01  0.2400E-01
    -31.723  0.0000E+00  0.0000E+00  0.2400E-01  0.2400E-01
    -31.530  0.0000E+00  0.0000E+00  0.2400E-01  0.2400E-01
    -31.337  0.0000E+00  0.0000E+00  0.2400E-01  0.2400E-01
    -31.144  0.0000E+00  0.0000E+00  0.2400E-01  0.2400E-01
    -30.951  0.0000E+00  0.0000E+00  0.2400E-01  0.2400E-01
    -30.758  0.0000E+00  0.0000E+00  0.2400E-01  0.2400E-01
    -30.565  0.0000E+00  0.0000E+00  0.2400E-01  0.2400E-01
    -30.372  0.0000E+00  0.0000E+00  0.2400E-01  0.2400E-01
    -30.179  0.0000E+00  0.0000E+00  0.2400E-01  0.2400E-01
    -29.986  0.0000E+00  0.0000E+00  0.2400E-01  0.2400E-01
    -29.793  0.0000E+00  0.0000E+00  0.2400E-01  0.2400E-01
    -29.600  0.0000E+00  0.0000E+00  0.2400E-01  0.2400E-01
    -29.407  0.0000E+00  0.0000E+00  0.2400E-01  0.2400E-01
    -29.214  0.0000E+00  0.0000E+00  0.2400E-01  0.2400E-01
    -29.021  0.0000E+00  0.0000E+00  0.2400E-01  0.2400E-01
    -28.828  0.0000E+00  0.0000E+00  0.2400E-01  0.2400E-01
    -28.635  0.0000E+00  0.0000E+00  0.2400E-01  0.2400E-01
    -28.442  0.0000E+00  0.0000E+00  0.2400E-01  0.2400E-01
    -28.249  0.0000E+00  0.0000E+00  0.2400E-01  0.2400E-01
    -28.056  0.0000E+00  0.0000E+00  0.2400E-01  0.2400E-01
    -27.863  0.0000E+00  0.0000E+00  0.2400E-01  0.2400E-01
    -27.670  0.0000E+00  0.0000E+00  0.2400E-01  0.2400E-01
    -27.477  0.0000E+00  0.0000E+00  0.2400E-01  0.2400E-01
    -27.284  0.0000E+00  0.0000E+00  0.2400E-01  0.2400E-01
    -27.091  0.0000E+00  0.0000E+00  0.2400E-01  0.2400E-01
    -26.898  0.0000E+00  0.0000E+00  0.2400E-01  0.2400E-01
    -26.705  0.0000E+00  0.0000E+00  0.2400E-01  0.2400E-01
    -26.512  0.0000E+00  0.0000E+00  0.2400E-01  0.2400E-01
    -26.319  0.0000E+00  0.0000E+00  0.2400E-01  0.2400E-01
    -26.126  0.0000E+00  0.0000E+00  0.2400E-01  0.2400E-01
    -25.933  0.0000E+00  0.0000E+00  0.2400E-01  0.2400E-01
    -25.740  0.0000E+00  0.0000E+00  0.2400E-01  0.2400E-01
    -25.547  0.0000E+00  0.0000E+00  0.2400E-01  0.2400E-01
    -25.354  0.0000E+00  0.0000E+00  0.2400E-01  0.2400E-01
    -25.161  0.0000E+00  0.0000E+00  0.2400E-01  0.2400E-01
    -24.968  0.0000E+00  0.0000E+00  0.2400E-01  0.2400E-01
    -24.775  0.0000E+00  0.0000E+00  0.2400E-01  0.2400E-01
    -24.582  0.0000E+00  0.0000E+00  0.2400E-01  0.2400E-01
    -24.389  0.0000E+00  0.0000E+00  0.2400E-01  0.2400E-01
    -24.196  0.0000E+00  0.0000E+00  0.2400E-01  0.2400E-01
    -24.003  0.0000E+00  0.0000E+00  0.2400E-01  0.2400E-01
    -23.810  0.0000E+00  0.0000E+00  0.2400E-01  0.2400E-01
    -23.617  0.0000E+00  0.0000E+00  0.2400E-01  0.2400E-01
    -23.424  0.0000E+00  0.0000E+00  0.2400E-01  0.2400E-01
    -23.231  0.0000E+00  0.0000E+00  0.2400E-01  0.2400E-01
    -23.038  0.0000E+00  0.0000E+00  0.2400E-01  0.2400E-01
    -22.845  0.0000E+00  0.0000E+00  0.2400E-01  0.2400E-01
    -22.652  0.0000E+00  0.0000E+00  0.2400E-01  0.2400E-01
    -22.459  0.0000E+00  0.0000E+00  0.2400E-01  0.2400E-01
    -22.266  0.0000E+00  0.0000E+00  0.2400E-01  0.2400E-01
    -22.073  0.0000E+00  0.0000E+00  0.2400E-01  0.2400E-01
    -21.881  0.0000E+00  0.0000E+00  0.2400E-01  0.2400E-01
    -21.688  0.0000E+00  0.0000E+00  0.2400E-01  0.2400E-01
    -21.495  0.0000E+00  0.0000E+00  0.2400E-01  0.2400E-01
    -21.302  0.0000E+00  0.0000E+00  0.2400E-01  0.2400E-01
    -21.109  0.0000E+00  0.0000E+00  0.2400E-01  0.2400E-01
    -20.916  0.0000E+00  0.0000E+00  0.2400E-01  0.2400E-01
    -20.723  0.0000E+00  0.0000E+00  0.2400E-01  0.2400E-01
    -20.530  0.0000E+00  0.0000E+00  0.2400E-01  0.2400E-01
    -20.337  0.0000E+00  0.0000E+00  0.2400E-01  0.2400E-01
    -20.144  0.0000E+00  0.0000E+00  0.2400E-01  0.2400E-01
    -19.951  0.0000E+00  0.0000E+00  0.2400E-01  0.2400E-01
    -19.758  0.0000E+00  0.0000E+00  0.2400E-01  0.2400E-01
    -19.565  0.0000E+00  0.0000E+00  0.2400E-01  0.2400E-01
    -19.372  0.0000E+00  0.0000E+00  0.2400E-01  0.2400E-01
    -19.179  0.0000E+00  0.0000E+00  0.2400E-01  0.2400E-01
    -18.986  0.0000E+00  0.0000E+00  0.2400E-01  0.2400E-01
    -18.793  0.0000E+00  0.0000E+00  0.2400E-01  0.2400E-01
    -18.600  0.0000E+00  0.0000E+00  0.2400E-01  0.2400E-01
    -18.407  0.0000E+00  0.0000E+00  0.2400E-01  0.2400E-01
    -18.214  0.0000E+00  0.0000E+00  0.2400E-01  0.2400E-01
    -18.021  0.0000E+00  0.0000E+00  0.2400E-01  0.2400E-01
    -17.828  0.0000E+00  0.0000E+00  0.2400E-01  0.2400E-01
    -17.635  0.0000E+00  0.0000E+00  0.2400E-01  0.2400E-01
    -17.442  0.0000E+00  0.0000E+00  0.2400E-01  0.2400E-01
    -17.249  0.0000E+00  0.0000E+00  0.2400E-01  0.2400E-01
    -17.056  0.0000E+00  0.0000E+00  0.2400E-01  0.2400E-01
    -16.863  0.0000E+00  0.0000E+00  0.2400E-01  0.2400E-01
    -16.670  0.0000E+00  0.0000E+00  0.2400E-01  0.2400E-01
    -16.477  0.0000E+00  0.0000E+00  0.2400E-01  0.2400E-01
    -16.284  0.0000E+00  0.0000E+00  0.2400E-01  0.2400E-01
    -16.091  0.0000E+00  0.0000E+00  0.2400E-01  0.2400E-01
    -15.898  0.0000E+00  0.0000E+00  0.2400E-01  0.2400E-01
    -15.705  0.0000E+00  0.0000E+00  0.2400E-01  0.2400E-01
    -15.512  0.0000E+00  0.0000E+00  0.2400E-01  0.2400E-01
    -15.319  0.0000E+00  0.0000E+00  0.2400E-01  0.2400E-01
    -15.126  0.0000E+00  0.0000E+00  0.2400E-01  0.2400E-01
    -14.933  0.0000E+00  0.0000E+00  0.2400E-01  0.2400E-01
    -14.740  0.0000E+00  0.0000E+00  0.2400E-01  0.2400E-01
    -14.547  0.0000E+00  0.0000E+00  0.2400E-01  0.2400E-01
    -14.354  0.0000E+00  0.0000E+00  0.2400E-01  0.2400E-01
    -14.161  0.0000E+00  0.0000E+00  0.2400E-01  0.2400E-01
    -13.968  0.0000E+00  0.0000E+00  0.2400E-01  0.2400E-01
    -13.775  0.0000E+00  0.0000E+00  0.2400E-01  0.2400E-01
    -13.582  0.0000E+00  0.0000E+00  0.2400E-01  0.2400E-01
    -13.389  0.0000E+00  0.0000E+00  0.2400E-01  0.2400E-01
    -13.196  0.0000E+00  0.0000E+00  0.2400E-01  0.2400E-01
    -13.003  0.2889E-02  0.2889E-02  0.2456E-01  0.2456E-01
    -12.810  0.1784E-01  0.1784E-01  0.2800E-01  0.2800E-01
    -12.617  0.6154E-02  0.6154E-02  0.2919E-01  0.2919E-01
    -12.424  0.1446E-01  0.1446E-01  0.3198E-01  0.3198E-01
    -12.231  0.1140E-03  0.1140E-03  0.3200E-01  0.3200E-01
    -12.038  0.0000E+00  0.0000E+00  0.3200E-01  0.3200E-01
    -11.845  0.0000E+00  0.0000E+00  0.3200E-01  0.3200E-01
    -11.652  0.0000E+00  0.0000E+00  0.3200E-01  0.3200E-01
    -11.459  0.0000E+00  0.0000E+00  0.3200E-01  0.3200E-01
    -11.266  0.0000E+00  0.0000E+00  0.3200E-01  0.3200E-01
    -11.073  0.0000E+00  0.0000E+00  0.3200E-01  0.3200E-01
    -10.880  0.0000E+00  0.0000E+00  0.3200E-01  0.3200E-01
    -10.687  0.0000E+00  0.0000E+00  0.3200E-01  0.3200E-01
    -10.494  0.0000E+00  0.0000E+00  0.3200E-01  0.3200E-01
    -10.301  0.3124E-04  0.3124E-04  0.3201E-01  0.3201E-01
    -10.108  0.1602E-01  0.1602E-01  0.3510E-01  0.3510E-01
     -9.915  0.3020E-01  0.3020E-01  0.4092E-01  0.4092E-01
     -9.722  0.1590E-01  0.1590E-01  0.4400E-01  0.4400E-01
     -9.529  0.0000E+00  0.0000E+00  0.4400E-01  0.4400E-01
     -9.336  0.0000E+00  0.0000E+00  0.4400E-01  0.4400E-01
     -9.143  0.0000E+00  0.0000E+00  0.4400E-01  0.4400E-01
     -8.950  0.0000E+00  0.0000E+00  0.4400E-01  0.4400E-01
     -8.757  0.0000E+00  0.0000E+00  0.4400E-01  0.4400E-01
     -8.564  0.0000E+00  0.0000E+00  0.4400E-01  0.4400E-01
     -8.371  0.8624E-03  0.8624E-03  0.4417E-01  0.4417E-01
     -8.178  0.1985E-01  0.1985E-01  0.4800E-01  0.4800E-01
     -7.985  0.0000E+00  0.0000E+00  0.4800E-01  0.4800E-01
     -7.792  0.0000E+00  0.0000E+00  0.4800E-01  0.4800E-01
     -7.599  0.0000E+00  0.0000E+00  0.4800E-01  0.4800E-01
     -7.406  0.0000E+00  0.0000E+00  0.4800E-01  0.4800E-01
     -7.213  0.0000E+00  0.0000E+00  0.4800E-01  0.4800E-01
     -7.020  0.0000E+00  0.0000E+00  0.4800E-01  0.4800E-01
     -6.827  0.0000E+00  0.0000E+00  0.4800E-01  0.4800E-01
     -6.634  0.0000E+00  0.0000E+00  0.4800E-01  0.4800E-01
     -6.441  0.0000E+00  0.0000E+00  0.4800E-01  0.4800E-01
     -6.248  0.1967E-15  0.1967E-15  0.4800E-01  0.4800E-01
     -6.055  0.4894E-02  0.4894E-02  0.4894E-01  0.4894E-01
     -5.862  0.2872E-03  0.2872E-03  0.4900E-01  0.4900E-01
     -5.669  0.3161E-02  0.3161E-02  0.4961E-01  0.4961E-01
     -5.476  0.1238E-01  0.1238E-01  0.5200E-01  0.5200E-01
     -5.283  0.0000E+00  0.0000E+00  0.5200E-01  0.5200E-01
     -5.090  0.0000E+00  0.0000E+00  0.5200E-01  0.5200E-01
     -4.897  0.0000E+00  0.0000E+00  0.5200E-01  0.5200E-01
     -4.704  0.0000E+00  0.0000E+00  0.5200E-01  0.5200E-01
     -4.511  0.0000E+00  0.0000E+00  0.5200E-01  0.5200E-01
     -4.318  0.0000E+00  0.0000E+00  0.5200E-01  0.5200E-01
     -4.125  0.0000E+00  0.0000E+00  0.5200E-01  0.5200E-01
     -3.932  0.0000E+00  0.0000E+00  0.5200E-01  0.5200E-01
     -3.739  0.0000E+00  0.0000E+00  0.5200E-01  0.5200E-01
     -3.546  0.0000E+00  0.0000E+00  0.5200E-01  0.5200E-01
     -3.353  0.2351E-15  0.2351E-15  0.5200E-01  0.5200E-01
     -3.160  0.9615E-02  0.9615E-02  0.5386E-01  0.5386E-01
     -2.967  0.5929E-02  0.5929E-02  0.5500E-01  0.5500E-01
     -2.774  0.5036E-02  0.5036E-02  0.5597E-01  0.5597E-01
     -2.581  0.1049E-01  0.1049E-01  0.5800E-01  0.5800E-01
     -2.388  0.1437E-01  0.1437E-01  0.6077E-01  0.6077E-01
     -2.195  0.1655E-01  0.1655E-01  0.6397E-01  0.6397E-01
     -2.002  0.1463E-03  0.1463E-03  0.6400E-01  0.6400E-01
     -1.809  0.0000E+00  0.0000E+00  0.6400E-01  0.6400E-01
     -1.616  0.5468E-05  0.5468E-05  0.6400E-01  0.6400E-01
     -1.423  0.1531E-01  0.1531E-01  0.6696E-01  0.6696E-01
     -1.230  0.2101E-01  0.2101E-01  0.7101E-01  0.7101E-01
     -1.037  0.1809E-01  0.1809E-01  0.7450E-01  0.7450E-01
     -0.844  0.7759E-02  0.7759E-02  0.7600E-01  0.7600E-01
     -0.651  0.6957E-09  0.6957E-09  0.7600E-01  0.7600E-01
     -0.458  0.1332E-01  0.1332E-01  0.7857E-01  0.7857E-01
     -0.265  0.1021E-01  0.1021E-01  0.8054E-01  0.8054E-01
     -0.072  0.1113E-01  0.1113E-01  0.8269E-01  0.8269E-01
      0.121  0.3002E-01  0.3002E-01  0.8849E-01  0.8849E-01
      0.314  0.2390E-01  0.2390E-01  0.9310E-01  0.9310E-01
      0.507  0.1498E-01  0.1498E-01  0.9599E-01  0.9599E-01
      0.700  0.4243E-04  0.4243E-04  0.9600E-01  0.9600E-01
      0.893  0.1285E-01  0.1285E-01  0.9848E-01  0.9848E-01
      1.086  0.2355E-01  0.2355E-01  0.1030E+00  0.1030E+00
      1.279  0.1993E-01  0.1993E-01  0.1069E+00  0.1069E+00
      1.472  0.3063E-01  0.3063E-01  0.1128E+00  0.1128E+00
      1.665  0.2658E-01  0.2658E-01  0.1179E+00  0.1179E+00
      1.858  0.1077E-01  0.1077E-01  0.1200E+00  0.1200E+00
      2.051  0.0000E+00  0.0000E+00  0.1200E+00  0.1200E+00
      2.244  0.0000E+00  0.0000E+00  0.1200E+00  0.1200E+00
      2.437  0.0000E+00  0.0000E+00  0.1200E+00  0.1200E+00
      2.630  0.0000E+00  0.0000E+00  0.1200E+00  0.1200E+00
      2.823  0.0000E+00  0.0000E+00  0.1200E+00  0.1200E+00
      3.016  0.0000E+00  0.0000E+00  0.1200E+00  0.1200E+00
      3.209  0.0000E+00  0.0000E+00  0.1200E+00  0.1200E+00
      3.402  0.0000E+00  0.0000E+00  0.1200E+00  0.1200E+00
      3.595  0.0000E+00  0.0000E+00  0.1200E+00  0.1200E+00
      3.788  0.0000E+00  0.0000E+00  0.1200E+00  0.1200E+00
      3.981  0.0000E+00  0.0000E+00  0.1200E+00  0.1200E+00
      4.174  0.0000E+00  0.0000E+00  0.1200E+00  0.1200E+00
      4.367  0.2535E-07  0.2535E-07  0.1200E+00  0.1200E+00
      4.560  0.5181E-02  0.5181E-02  0.1210E+00  0.1210E+00
      4.753  0.0000E+00  0.0000E+00  0.1210E+00  0.1210E+00
      4.946  0.0000E+00  0.0000E+00  0.1210E+00  0.1210E+00
      5.139  0.4605E-10  0.4605E-10  0.1210E+00  0.1210E+00
      5.332  0.6998E-02  0.6998E-02  0.1224E+00  0.1224E+00
      5.525  0.8531E-02  0.8531E-02  0.1240E+00  0.1240E+00
      5.718  0.0000E+00  0.0000E+00  0.1240E+00  0.1240E+00
      5.911  0.7034E-04  0.7034E-04  0.1240E+00  0.1240E+00
      6.104  0.1551E-01  0.1551E-01  0.1270E+00  0.1270E+00
      6.297  0.1501E-01  0.1501E-01  0.1299E+00  0.1299E+00
      6.490  0.1351E-02  0.1351E-02  0.1302E+00  0.1302E+00
      6.683  0.1360E-01  0.1360E-01  0.1328E+00  0.1328E+00
      6.876  0.8888E-02  0.8888E-02  0.1345E+00  0.1345E+00
      7.069  0.7712E-02  0.7712E-02  0.1360E+00  0.1360E+00
      7.262  0.5179E-02  0.5179E-02  0.1370E+00  0.1370E+00
      7.455  0.4641E-02  0.4641E-02  0.1379E+00  0.1379E+00
      7.648  0.1071E-01  0.1071E-01  0.1400E+00  0.1400E+00
      7.841  0.1256E-01  0.1256E-01  0.1424E+00  0.1424E+00
      8.034  0.1120E-01  0.1120E-01  0.1446E+00  0.1446E+00
      8.227  0.1346E-01  0.1346E-01  0.1471E+00  0.1471E+00
      8.420  0.1622E-01  0.1622E-01  0.1503E+00  0.1503E+00
      8.613  0.1262E-01  0.1262E-01  0.1527E+00  0.1527E+00
      8.806  0.1635E-01  0.1635E-01  0.1559E+00  0.1559E+00
      8.999  0.1794E-01  0.1794E-01  0.1593E+00  0.1593E+00
      9.192  0.1570E-01  0.1570E-01  0.1624E+00  0.1624E+00
      9.385  0.1815E-01  0.1815E-01  0.1659E+00  0.1659E+00
      9.578  0.1824E-01  0.1825E-01  0.1694E+00  0.1694E+00
      9.771  0.1891E-01  0.1882E-01  0.1731E+00  0.1730E+00
      9.964  0.1235E-01  0.1243E-01  0.1754E+00  0.1754E+00
     10.157  0.2884E-02  0.2893E-02  0.1760E+00  0.1760E+00
     10.350  0.0000E+00  0.0000E+00  0.1760E+00  0.1760E+00
     10.543  0.0000E+00  0.0000E+00  0.1760E+00  0.1760E+00
     10.736  0.0000E+00  0.0000E+00  0.1760E+00  0.1760E+00
     10.929  0.0000E+00  0.0000E+00  0.1760E+00  0.1760E+00
     11.122  0.0000E+00  0.0000E+00  0.1760E+00  0.1760E+00
     11.315  0.0000E+00  0.0000E+00  0.1760E+00  0.1760E+00
     11.508  0.0000E+00  0.0000E+00  0.1760E+00  0.1760E+00
     11.701  0.0000E+00  0.0000E+00  0.1760E+00  0.1760E+00
     11.894  0.0000E+00  0.0000E+00  0.1760E+00  0.1760E+00
     12.087  0.0000E+00  0.0000E+00  0.1760E+00  0.1760E+00
     12.280  0.0000E+00  0.0000E+00  0.1760E+00  0.1760E+00
     12.473  0.0000E+00  0.0000E+00  0.1760E+00  0.1760E+00
     12.666  0.0000E+00  0.0000E+00  0.1760E+00  0.1760E+00
