 vasp.6.4.1 05Apr23 (build Jun 07 2023 15:38:11) complex                        
  
 executed on             LinuxIFC date 2023.10.24  22:52:23
 running  128 mpi-ranks, with    1 threads/rank, on    1 nodes
 distrk:  each k-point on  128 cores,    1 groups
 distr:  one band on NCORE=  32 cores,    4 groups


--------------------------------------------------------------------------------------------------------


 INCAR:
   GGA = PE
   PREC = Accu
   EDIFF = 1.e-6
   EDIFFG = -1.e-3
   ENCUT = 520.
   NELM = 100
   NELMDL = -10
   LASPH = .TRUE.
   LREAL = Auto
   LMAXMIX = 4
   ISPIN = 2
   LDIAG = .TRUE.
   LPLANE = .TRUE.
   IVDW = 12
   SIGMA = 0.03
   ISMEAR = 0
   NSW = 1000    number of steps for IOM
   IBRION = 2    ionic relax: 0-MD 1-quasi-New 2-CG
   ISIF = 2    ionic relaxation + stress tensor calcn.
   LCHARG = .FALSE.
   LWAVE = .FALSE.
   ALGO = F
   KPAR = 1
   NPAR = 4
   POTIM = 0.2

 POTCAR:    PAW_PBE Li_sv_GW 25Mar2010            
 POTCAR:    PAW_PBE P_GW 19Mar2012                
 POTCAR:    PAW_PBE S_GW 19Mar2012                
 POTCAR:    PAW_PBE Cl_GW 19Mar2012               
 -----------------------------------------------------------------------------
|                                                                             |
|           W    W    AA    RRRRR   N    N  II  N    N   GGGG   !!!           |
|           W    W   A  A   R    R  NN   N  II  NN   N  G    G  !!!           |
|           W    W  A    A  R    R  N N  N  II  N N  N  G       !!!           |
|           W WW W  AAAAAA  RRRRR   N  N N  II  N  N N  G  GGG   !            |
|           WW  WW  A    A  R   R   N   NN  II  N   NN  G    G                |
|           W    W  A    A  R    R  N    N  II  N    N   GGGG   !!!           |
|                                                                             |
|     You use a magnetic or noncollinear calculation, but did not specify     |
|     the initial magnetic moment with the MAGMOM tag. Note that a            |
|     default of 1 will be used for all atoms. This ferromagnetic setup       |
|     may break the symmetry of the crystal, in particular it may rule        |
|     out finding an antiferromagnetic solution. Thence, we recommend         |
|     setting the initial magnetic moment manually or verifying carefully     |
|     that this magnetic setup is desired.                                    |
|                                                                             |
 -----------------------------------------------------------------------------

 POTCAR:    PAW_PBE Li_sv_GW 25Mar2010            
   SHA256 =  24a6ace15a582615486b36ce4dc781b048409f4015b7684ed1273ae395fa2fdc Li_sv_GW/POTCAR       
   COPYR  = (c) Copyright 25Mar2010 Georg Kresse                                                    
   COPYR  = This file is part of the software VASP. Any use, copying, and all other rights are regul
   COPYR  = If you do not have a valid VASP license, you may not use, copy or distribute this file. 
   VRHFIN =Li: 1s2s                                                                                 
   LEXCH  = PE                                                                                      
   EATOM  =   200.9989 eV,   14.7730 Ry                                                             
                                                                                                    
   TITEL  = PAW_PBE Li_sv_GW 25Mar2010                                                              
   LULTRA =        F    use ultrasoft PP ?                                                          
   IUNSCR =        0    unscreen: 0-lin 1-nonlin 2-no                                               
   RPACOR =    0.000    partial core radius                                                         
   POMASS =    7.010; ZVAL   =    3.000    mass and valenz                                          
   RCORE  =    1.500    outmost cutoff radius                                                       
   RWIGS  =    1.600; RWIGS  =    0.847    wigner-seitz radius (au A)                               
   ENMAX  =  433.699; ENMIN  =  325.274 eV                                                          
   RCLOC  =    1.003    cutoff for local pot                                                        
   LCOR   =        T    correct aug charges                                                         
   LPAW   =        T    paw PP                                                                      
   EAUG   = 1041.699                                                                                
   RMAX   =    1.536    core radius for proj-oper                                                   
   RAUG   =    1.300    factor for augmentation sphere                                              
   RDEP   =    1.520    radius for radial grids                                                     
   RDEPT  =    1.300    core radius for aug-charge                                                  
                                                                                                    
   Atomic configuration                                                                             
    4 entries                                                                                       
     n  l   j            E        occ.                                                              
     1  0  0.50       -53.3604   2.0000                                                             
     1  0  0.50       -52.0001   0.0000                                                             
     2  1  0.50        -1.5636   1.0000                                                             
     3  2  1.50        -1.3606   0.0000                                                             
   Description                                                                                      
     l       E           TYP  RCUT    TYP  RCUT                                                     
     0    -53.3603633     23  1.200                                                                 
     0    -52.0001064     23  1.200                                                                 
     0    176.8757380     23  1.300                                                                 
     1     -1.5635925     23  1.500                                                                 
     1    108.8466080     23  1.500                                                                 
     2     81.6349560     23  1.500                                                                 
  local pseudopotential read in
  kinetic energy density of atom read in
  atomic valenz-charges read in
  non local Contribution for L=           0  read in
    real space projection operators read in
  non local Contribution for L=           0  read in
    real space projection operators read in
  non local Contribution for L=           0  read in
    real space projection operators read in
  non local Contribution for L=           1  read in
    real space projection operators read in
  non local Contribution for L=           1  read in
    real space projection operators read in
  non local Contribution for L=           2  read in
    real space projection operators read in
    PAW grid and wavefunctions read in
 
   number of l-projection  operators is LMAX  =           6
   number of lm-projection operators is LMMAX =          14
 
 POTCAR:    PAW_PBE P_GW 19Mar2012                
   SHA256 =  715c28f2291d37b61637ce89646c59f66f71c8b8d8bfba631e5feb9f7b42defe P_GW/POTCAR           
   COPYR  = (c) Copyright 19Mar2012 Georg Kresse                                                    
   COPYR  = This file is part of the software VASP. Any use, copying, and all other rights are regul
   COPYR  = If you do not have a valid VASP license, you may not use, copy or distribute this file. 
   VRHFIN =P : s2p3                                                                                 
   LEXCH  = PE                                                                                      
   EATOM  =   176.0430 eV,   12.9388 Ry                                                             
                                                                                                    
   TITEL  = PAW_PBE P_GW 19Mar2012                                                                  
   LULTRA =        F    use ultrasoft PP ?                                                          
   IUNSCR =        1    unscreen: 0-lin 1-nonlin 2-no                                               
   RPACOR =    1.400    partial core radius                                                         
   POMASS =   30.974; ZVAL   =    5.000    mass and valenz                                          
   RCORE  =    2.000    outmost cutoff radius                                                       
   RWIGS  =    1.900; RWIGS  =    1.005    wigner-seitz radius (au A)                               
   ENMAX  =  255.040; ENMIN  =  191.280 eV                                                          
   ICORE  =        3    local potential                                                             
   LCOR   =        T    correct aug charges                                                         
   LPAW   =        T    paw PP                                                                      
   EAUG   =  499.732                                                                                
   DEXC   =    0.000                                                                                
   RMAX   =    2.047    core radius for proj-oper                                                   
   RAUG   =    1.300    factor for augmentation sphere                                              
   RDEP   =    2.059    radius for radial grids                                                     
   RDEPT  =    1.900    core radius for aug-charge                                                  
                                                                                                    
   Atomic configuration                                                                             
    7 entries                                                                                       
     n  l   j            E        occ.                                                              
     1  0  0.50     -2084.0982   2.0000                                                             
     2  0  0.50      -173.9859   2.0000                                                             
     2  1  1.50      -124.4865   6.0000                                                             
     3  0  0.50       -13.9692   2.0000                                                             
     3  1  0.50        -5.5067   3.0000                                                             
     3  2  1.50        -6.8029   0.0000                                                             
     4  3  2.50        -1.3606   0.0000                                                             
   Description                                                                                      
     l       E           TYP  RCUT    TYP  RCUT                                                     
     0    -13.9691528     23  1.900                                                                 
     0    102.0436950     23  1.900                                                                 
     1     -5.5066939     23  1.900                                                                 
     1    102.0436950     23  1.900                                                                 
     2     -8.1634956     23  2.000                                                                 
     2     81.6349560     23  2.000                                                                 
     3     27.2116520     23  2.000                                                                 
  local pseudopotential read in
  partial core-charges read in
  partial kinetic energy density read in
  kinetic energy density of atom read in
  atomic valenz-charges read in
  non local Contribution for L=           0  read in
    real space projection operators read in
  non local Contribution for L=           0  read in
    real space projection operators read in
  non local Contribution for L=           1  read in
    real space projection operators read in
  non local Contribution for L=           1  read in
    real space projection operators read in
  non local Contribution for L=           2  read in
    real space projection operators read in
  non local Contribution for L=           2  read in
    real space projection operators read in
    PAW grid and wavefunctions read in
 
   number of l-projection  operators is LMAX  =           6
   number of lm-projection operators is LMMAX =          18
 
 POTCAR:    PAW_PBE S_GW 19Mar2012                
   SHA256 =  357db9cfb0783579b2eebe03197c2d807131fea8ea663b1fcfb6ce2fa75af011 S_GW/POTCAR           
   COPYR  = (c) Copyright 19Mar2012 Georg Kresse                                                    
   COPYR  = This file is part of the software VASP. Any use, copying, and all other rights are regul
   COPYR  = If you do not have a valid VASP license, you may not use, copy or distribute this file. 
   VRHFIN =S : s2p4                                                                                 
   LEXCH  = PE                                                                                      
   EATOM  =   276.8230 eV,   20.3459 Ry                                                             
                                                                                                    
   TITEL  = PAW_PBE S_GW 19Mar2012                                                                  
   LULTRA =        F    use ultrasoft PP ?                                                          
   IUNSCR =        1    unscreen: 0-lin 1-nonlin 2-no                                               
   RPACOR =    1.400    partial core radius                                                         
   POMASS =   32.066; ZVAL   =    6.000    mass and valenz                                          
   RCORE  =    1.900    outmost cutoff radius                                                       
   RWIGS  =    1.900; RWIGS  =    1.005    wigner-seitz radius (au A)                               
   ENMAX  =  258.689; ENMIN  =  194.016 eV                                                          
   ICORE  =        3    local potential                                                             
   LCOR   =        T    correct aug charges                                                         
   LPAW   =        T    paw PP                                                                      
   EAUG   =  488.319                                                                                
   DEXC   =    0.000                                                                                
   RMAX   =    1.942    core radius for proj-oper                                                   
   RAUG   =    1.300    factor for augmentation sphere                                              
   RDEP   =    1.954    radius for radial grids                                                     
   RDEPT  =    1.900    core radius for aug-charge                                                  
                                                                                                    
   Atomic configuration                                                                             
    7 entries                                                                                       
     n  l   j            E        occ.                                                              
     1  0  0.50     -2405.8406   2.0000                                                             
     2  0  0.50      -211.7007   2.0000                                                             
     2  1  1.50      -156.4958   6.0000                                                             
     3  0  0.50       -17.2562   2.0000                                                             
     3  1  0.50        -7.0085   4.0000                                                             
     3  2  1.50        -8.1635   0.0000                                                             
     4  3  2.50        -1.3606   0.0000                                                             
   Description                                                                                      
     l       E           TYP  RCUT    TYP  RCUT                                                     
     0    -17.2561639     23  1.700                                                                 
     0     88.4378690     23  1.900                                                                 
     1     -7.0085399     23  1.900                                                                 
     1     88.4378690     23  1.900                                                                 
     2    -10.8846608     23  1.900                                                                 
     2     54.4233040     23  1.900                                                                 
     3     27.2116520     23  1.800                                                                 
  local pseudopotential read in
  partial core-charges read in
  partial kinetic energy density read in
  kinetic energy density of atom read in
  atomic valenz-charges read in
  non local Contribution for L=           0  read in
    real space projection operators read in
  non local Contribution for L=           0  read in
    real space projection operators read in
  non local Contribution for L=           1  read in
    real space projection operators read in
  non local Contribution for L=           1  read in
    real space projection operators read in
  non local Contribution for L=           2  read in
    real space projection operators read in
  non local Contribution for L=           2  read in
    real space projection operators read in
    PAW grid and wavefunctions read in
 
   number of l-projection  operators is LMAX  =           6
   number of lm-projection operators is LMMAX =          18
 
 POTCAR:    PAW_PBE Cl_GW 19Mar2012               
   SHA256 =  3ef3b3169d6a9a89979f58b4cf17d927a58518fc660d8883d88cacaee8175441 Cl_GW/POTCAR          
   COPYR  = (c) Copyright 19Mar2012 Georg Kresse                                                    
   COPYR  = This file is part of the software VASP. Any use, copying, and all other rights are regul
   COPYR  = If you do not have a valid VASP license, you may not use, copy or distribute this file. 
   VRHFIN =Cl: s2p5                                                                                 
   LEXCH  = PE                                                                                      
   EATOM  =   409.7259 eV,   30.1140 Ry                                                             
                                                                                                    
   TITEL  = PAW_PBE Cl_GW 19Mar2012                                                                 
   LULTRA =        F    use ultrasoft PP ?                                                          
   IUNSCR =        1    unscreen: 0-lin 1-nonlin 2-no                                               
   RPACOR =    1.400    partial core radius                                                         
   POMASS =   35.453; ZVAL   =    7.000    mass and valenz                                          
   RCORE  =    1.900    outmost cutoff radius                                                       
   RWIGS  =    1.900; RWIGS  =    1.005    wigner-seitz radius (au A)                               
   ENMAX  =  262.472; ENMIN  =  196.854 eV                                                          
   ICORE  =        3    local potential                                                             
   LCOR   =        T    correct aug charges                                                         
   LPAW   =        T    paw PP                                                                      
   EAUG   =  456.703                                                                                
   DEXC   =    0.000                                                                                
   RMAX   =    1.945    core radius for proj-oper                                                   
   RAUG   =    1.300    factor for augmentation sphere                                              
   RDEP   =    2.020    radius for radial grids                                                     
   RDEPT  =    1.900    core radius for aug-charge                                                  
                                                                                                    
   Atomic configuration                                                                             
    7 entries                                                                                       
     n  l   j            E        occ.                                                              
     1  0  0.50     -2751.1850   2.0000                                                             
     2  0  0.50      -252.6861   2.0000                                                             
     2  1  1.50      -191.6157   6.0000                                                             
     3  0  0.50       -20.6916   2.0000                                                             
     3  1  0.50        -8.5949   5.0000                                                             
     3  2  1.50        -9.5241   0.0000                                                             
     4  3  2.50        -9.5241   0.0000                                                             
   Description                                                                                      
     l       E           TYP  RCUT    TYP  RCUT                                                     
     0    -20.6915657     23  1.700                                                                 
     0     95.2407820     23  1.800                                                                 
     1     -8.5948577     23  1.900                                                                 
     1     95.2407820     23  1.900                                                                 
     2    -10.8846608     23  1.900                                                                 
     2     54.4233040     23  1.900                                                                 
     3     27.2116520     23  1.900                                                                 
  local pseudopotential read in
  partial core-charges read in
  partial kinetic energy density read in
  kinetic energy density of atom read in
  atomic valenz-charges read in
  non local Contribution for L=           0  read in
    real space projection operators read in
  non local Contribution for L=           0  read in
    real space projection operators read in
  non local Contribution for L=           1  read in
    real space projection operators read in
  non local Contribution for L=           1  read in
    real space projection operators read in
  non local Contribution for L=           2  read in
    real space projection operators read in
  non local Contribution for L=           2  read in
    real space projection operators read in
    PAW grid and wavefunctions read in
 
   number of l-projection  operators is LMAX  =           6
   number of lm-projection operators is LMMAX =          18
 
 Optimization of the real space projectors (new method)

 maximal supplied QI-value         = 25.13
 optimisation between [QCUT,QGAM] = [ 11.56, 23.12] = [ 37.43,149.72] Ry 
 Optimized for a Real-space Cutoff    1.28 Angstroem

   l    n(q)    QCUT    max X(q) W(low)/X(q) W(high)/X(q)  e(spline) 
   0      9    11.561    87.733    0.11E-03    0.32E-04    0.56E-06
   0      9    11.561    82.800    0.11E-03    0.35E-04    0.56E-06
   0      9    11.561     2.509    0.22E-03    0.42E-04    0.79E-06
   1      8    11.561    12.580    0.94E-04    0.26E-03    0.21E-06
   1      8    11.561     1.319    0.33E-04    0.15E-03    0.19E-06
   2      8    11.561     1.993    0.36E-04    0.89E-04    0.26E-06
 Optimization of the real space projectors (new method)

 maximal supplied QI-value         = 18.90
 optimisation between [QCUT,QGAM] = [ 11.53, 23.24] = [ 37.21,151.29] Ry 
 Optimized for a Real-space Cutoff    1.21 Angstroem

   l    n(q)    QCUT    max X(q) W(low)/X(q) W(high)/X(q)  e(spline) 
   0      8    11.527     8.355    0.73E-04    0.70E-04    0.26E-07
   0      8    11.527     1.401    0.17E-03    0.17E-03    0.63E-07
   1      8    11.527     4.747    0.13E-03    0.17E-03    0.11E-06
   1      8    11.527     2.025    0.16E-03    0.18E-03    0.12E-06
   2      7    11.527     3.169    0.51E-04    0.25E-03    0.60E-07
   2      7    11.527     3.441    0.82E-04    0.22E-03    0.14E-06
 Optimization of the real space projectors (new method)

 maximal supplied QI-value         = 19.84
 optimisation between [QCUT,QGAM] = [ 11.51, 23.22] = [ 37.09,150.92] Ry 
 Optimized for a Real-space Cutoff    1.49 Angstroem

   l    n(q)    QCUT    max X(q) W(low)/X(q) W(high)/X(q)  e(spline) 
   0     10    11.508     7.541    0.34E-04    0.13E-04    0.69E-07
   0     10    11.508     1.809    0.49E-04    0.27E-04    0.14E-06
   1     10    11.508     4.107    0.27E-05    0.41E-05    0.14E-06
   1     10    11.508     2.196    0.26E-05    0.25E-05    0.22E-06
   2      9    11.508     4.265    0.18E-03    0.11E-03    0.81E-06
   2      9    11.508     1.925    0.97E-04    0.76E-04    0.47E-06
 Optimization of the real space projectors (new method)

 maximal supplied QI-value         = 19.84
 optimisation between [QCUT,QGAM] = [ 11.51, 23.22] = [ 37.09,150.92] Ry 
 Optimized for a Real-space Cutoff    1.21 Angstroem

   l    n(q)    QCUT    max X(q) W(low)/X(q) W(high)/X(q)  e(spline) 
   0      8    11.508     6.761    0.57E-04    0.57E-04    0.35E-07
   0      8    11.508     1.642    0.14E-03    0.14E-03    0.91E-07
   1      8    11.508     3.519    0.20E-04    0.72E-04    0.47E-07
   1      8    11.508     2.150    0.27E-04    0.11E-03    0.89E-07
   2      7    11.508     2.976    0.19E-03    0.33E-03    0.16E-06
   2      7    11.508     1.494    0.14E-03    0.29E-03    0.14E-06
  PAW_PBE Li_sv_GW 25Mar2010            :
 energy of atom  1       EATOM= -200.9989
 kinetic energy error for atom=    0.0127 (will be added to EATOM!!)
  PAW_PBE P_GW 19Mar2012                :
 energy of atom  2       EATOM= -176.0430
 kinetic energy error for atom=    0.0011 (will be added to EATOM!!)
  PAW_PBE S_GW 19Mar2012                :
 energy of atom  3       EATOM= -276.8230
 kinetic energy error for atom=    0.0024 (will be added to EATOM!!)
  PAW_PBE Cl_GW 19Mar2012               :
 energy of atom  4       EATOM= -409.7259
 kinetic energy error for atom=    0.0030 (will be added to EATOM!!)
 
 
 POSCAR: Li24 P4 S20 Cl4
  positions in direct lattice
  velocities in cartesian coordinates
 exchange correlation table for  LEXCH =        8
   RHO(1)=    0.500       N(1)  =     2000
   RHO(2)=  100.500       N(2)  =     4000

 VTST: version 4.1, (05/19/21)

 CHAIN: initializing optimizer
 
 OPT: Using VASP Conjugate-Gradient optimizer
 CHAIN: Read ICHAIN            0
 
 POSCAR: Li24 P4 S20 Cl4
  positions in direct lattice
  velocities in cartesian coordinates
 


--------------------------------------------------------------------------------------------------------


 ion  position               nearest neighbor table
   1  0.966  0.321  0.343-
   2  0.987  0.698  0.717-
   3  0.029  0.346  0.713-
   4  0.033  0.844  0.216-
   5  0.193  0.194  0.999-
   6  0.220  0.804  0.018-
   7  0.838  0.182  0.047-
   8  0.828  0.820  0.963-
   9  0.326  0.959  0.348-
  10  0.188  0.016  0.790-
  11  0.729  0.987  0.716-
  12  0.677  0.025  0.307-
  13  0.180  0.664  0.460-
  14  0.244  0.242  0.531-
  15  0.804  0.669  0.522-
  16  0.705  0.226  0.493-
  17  0.337  0.463  0.830-
  18  0.290  0.518  0.197-
  19  0.717  0.488  0.212-
  20  0.676  0.544  0.843-
  21  0.472  0.189  0.713-
  22  0.483  0.709  0.185-
  23  0.524  0.291  0.179-
  24  0.527  0.799  0.658-
  25  0.491  0.501  0.507-  43 2.04  44 2.05  42 2.06  41 2.06
  26  0.509  1.000  0.999-  37 2.05  38 2.05  40 2.05  39 2.06
  27  1.000  0.505  0.015-  33 2.04  34 2.05  36 2.05  35 2.06
  28  0.999  0.000  0.501-  31 2.04  30 2.06  32 2.06  29 2.06
  29  0.131  0.871  0.606-  28 2.06
  30  0.118  0.113  0.365-  28 2.06
  31  0.863  0.880  0.392-  28 2.04
  32  0.898  0.137  0.630-  28 2.06
  33  0.890  0.643  0.132-  27 2.04
  34  0.867  0.387  0.897-  27 2.05
  35  0.137  0.609  0.889-  27 2.06
  36  0.107  0.372  0.142-  27 2.05
  37  0.632  0.136  0.893-  26 2.05
  38  0.640  0.878  0.114-  26 2.05
  39  0.379  0.100  0.135-  26 2.06
  40  0.394  0.883  0.863-  26 2.05
  41  0.608  0.632  0.386-  25 2.06
  42  0.613  0.391  0.644-  25 2.06
  43  0.361  0.617  0.628-  25 2.04
  44  0.381  0.371  0.379-  25 2.05
  45  0.754  0.752  0.745-
  46  0.748  0.254  0.261-
  47  0.255  0.749  0.247-
  48  0.246  0.248  0.768-
  49  0.024  0.987  0.996-
  50  0.996  0.507  0.521-
  51  0.526  0.023  0.521-
  52  0.500  0.501  0.035-
 
  LATTYP: Found a simple cubic cell.
 ALAT       =     9.6494745417
  
  Lattice vectors:
  
 A1 = (   9.6494745417,   0.0000000000,   0.0000000000)
 A2 = (   0.0000000000,   9.6494745417,   0.0000000000)
 A3 = (   0.0000000000,   0.0000000000,   9.6494745417)


Analysis of symmetry for initial positions (statically):
=====================================================================
 Subroutine PRICEL returns:
 Original cell was already a primitive cell.
 

 Routine SETGRP: Setting up the symmetry group for a 
 simple cubic supercell.


 Subroutine GETGRP returns: Found  1 space group operations
 (whereof  1 operations were pure point group operations)
 out of a pool of 48 trial point group operations.


The static configuration has the point symmetry C_1 .


Analysis of symmetry for dynamics (positions and initial velocities):
=====================================================================
 Subroutine PRICEL returns:
 Original cell was already a primitive cell.
 

 Routine SETGRP: Setting up the symmetry group for a 
 simple cubic supercell.


 Subroutine GETGRP returns: Found  1 space group operations
 (whereof  1 operations were pure point group operations)
 out of a pool of 48 trial point group operations.


The dynamic configuration has the point symmetry C_1 .


Analysis of structural, dynamic, and magnetic symmetry:
=====================================================================
 Subroutine PRICEL returns:
 Original cell was already a primitive cell.
 

 Routine SETGRP: Setting up the symmetry group for a 
 simple cubic supercell.


 Subroutine GETGRP returns: Found  1 space group operations
 (whereof  1 operations were pure point group operations)
 out of a pool of 48 trial point group operations.


The overall configuration has the point symmetry C_1 .


 Subroutine INISYM returns: Found  1 space group operations
 (whereof  1 operations are pure point group operations),
 and found     1 'primitive' translations


----------------------------------------------------------------------------------------

                                     Primitive cell                                     

  volume of cell :     898.4853

  direct lattice vectors                    reciprocal lattice vectors
     9.649474542  0.000000000  0.000000000     0.103632586  0.000000000  0.000000000
     0.000000000  9.649474542  0.000000000     0.000000000  0.103632586  0.000000000
     0.000000000  0.000000000  9.649474542     0.000000000  0.000000000  0.103632586

  length of vectors
     9.649474542  9.649474542  9.649474542     0.103632586  0.103632586  0.103632586

  position of ions in fractional coordinates (direct lattice)
     0.965789454  0.320730642  0.342947226
     0.987358079  0.697793965  0.717233904
     0.029202576  0.346205528  0.712944904
     0.032679579  0.844275797  0.215937333
     0.192719730  0.194109086  0.998751325
     0.219880882  0.804280579  0.017705355
     0.838222813  0.181789337  0.046756473
     0.828475471  0.819532262  0.962924965
     0.326062251  0.958673829  0.348112290
     0.187705378  0.016049712  0.790212140
     0.729203576  0.986523693  0.715690749
     0.677369769  0.024881849  0.306875045
     0.179820364  0.664393284  0.459573393
     0.243941074  0.241552981  0.530816152
     0.804195850  0.669246168  0.521733395
     0.705280504  0.226397530  0.493346892
     0.337029915  0.463277869  0.830139284
     0.289856697  0.517869065  0.196838699
     0.717000619  0.487731872  0.212411932
     0.675727863  0.544306753  0.842951803
     0.472334060  0.188959543  0.712896472
     0.482632116  0.709289914  0.184907556
     0.524088477  0.291248885  0.178931521
     0.527269703  0.799055420  0.657505750
     0.491089500  0.500673421  0.507225193
     0.509074008  0.999536411  0.998910157
     0.999882179  0.504524316  0.014698875
     0.999086071  0.000393548  0.500866489
     0.131401918  0.870589475  0.606293613
     0.118091219  0.112963478  0.364765606
     0.863307909  0.880288274  0.391535635
     0.898098876  0.136951488  0.629707759
     0.890003265  0.642594589  0.131865577
     0.867263992  0.387411757  0.897120274
     0.136577774  0.608940429  0.888756162
     0.106811482  0.371812970  0.142041879
     0.632391381  0.136461228  0.893054186
     0.640171137  0.877849386  0.113924989
     0.379434135  0.100350121  0.134802976
     0.394125511  0.882679513  0.863396065
     0.608055596  0.631684423  0.386264368
     0.612712496  0.391437872  0.643960353
     0.360955172  0.616654255  0.627546868
     0.381479445  0.370818423  0.379487020
     0.753902286  0.751642764  0.745487290
     0.747666777  0.253718181  0.261059404
     0.254877124  0.749357011  0.247459610
     0.245871917  0.247556108  0.767615863
     0.024440675  0.986959380  0.996103790
     0.996228532  0.507004591  0.521104088
     0.526158010  0.022623689  0.520615312
     0.499662553  0.501006729  0.035467389

  ion indices of the primitive-cell ions
   primitive index   ion index
                 1           1
                 2           2
                 3           3
                 4           4
                 5           5
                 6           6
                 7           7
                 8           8
                 9           9
                10          10
                11          11
                12          12
                13          13
                14          14
                15          15
                16          16
                17          17
                18          18
                19          19
                20          20
                21          21
                22          22
                23          23
                24          24
                25          25
                26          26
                27          27
                28          28
                29          29
                30          30
                31          31
                32          32
                33          33
                34          34
                35          35
                36          36
                37          37
                38          38
                39          39
                40          40
                41          41
                42          42
                43          43
                44          44
                45          45
                46          46
                47          47
                48          48
                49          49
                50          50
                51          51
                52          52

----------------------------------------------------------------------------------------

 
 
 KPOINTS: Automatic mesh                          

Automatic generation of k-mesh.
 Grid dimensions read from file:
 generate k-points for:    2    2    2

 Generating k-lattice:

  Cartesian coordinates                     Fractional coordinates (reciprocal lattice)
     0.051816293  0.000000000  0.000000000     0.500000000  0.000000000  0.000000000
     0.000000000  0.051816293  0.000000000     0.000000000  0.500000000  0.000000000
     0.000000000  0.000000000  0.051816293     0.000000000  0.000000000  0.500000000

  Length of vectors
     0.051816293  0.051816293  0.051816293

  Shift w.r.t. Gamma in fractional coordinates (k-lattice)
     0.500000000  0.500000000  0.500000000

 
 Subroutine IBZKPT returns following result:
 ===========================================
 
 Found      4 irreducible k-points:
 
 Following reciprocal coordinates:
            Coordinates               Weight
  0.250000  0.250000  0.250000      2.000000
 -0.250000  0.250000  0.250000      2.000000
 -0.250000 -0.250000  0.250000      2.000000
  0.250000 -0.250000  0.250000      2.000000
 
 Following cartesian coordinates:
            Coordinates               Weight
  0.025908  0.025908  0.025908      2.000000
 -0.025908  0.025908  0.025908      2.000000
 -0.025908 -0.025908  0.025908      2.000000
  0.025908 -0.025908  0.025908      2.000000
 


--------------------------------------------------------------------------------------------------------




 Dimension of arrays:
   k-points           NKPTS =      4   k-points in BZ     NKDIM =      4   number of bands    NBANDS=    176
   number of dos      NEDOS =    301   number of ions     NIONS =     52
   non local maximal  LDIM  =      6   non local SUM 2l+1 LMDIM =     18
   total plane-waves  NPLWV = 373248
   max r-space proj   IRMAX =   5796   max aug-charges    IRDMAX=  17730
   dimension x,y,z NGX =    72 NGY =   72 NGZ =   72
   dimension x,y,z NGXF=   144 NGYF=  144 NGZF=  144
   support grid    NGXF=   144 NGYF=  144 NGZF=  144
   ions per type =              24   4  20   4
   NGX,Y,Z   is equivalent  to a cutoff of  12.40, 12.40, 12.40 a.u.
   NGXF,Y,Z  is equivalent  to a cutoff of  24.81, 24.81, 24.81 a.u.

 SYSTEM =  unknown system                          
 POSCAR =  Li24 P4 S20 Cl4                         

 Startparameter for this run:
   NWRITE =      2    write-flag & timer
   PREC   = accu      normal or accurate (medium, high low for compatibility)
   ISTART =      0    job   : 0-new  1-cont  2-samecut
   ICHARG =      2    charge: 1-file 2-atom 10-const
   ISPIN  =      2    spin polarized calculation?
   LNONCOLLINEAR =      F non collinear calculations
   LSORBIT =      F    spin-orbit coupling
   INIWAV =      1    electr: 0-lowe 1-rand  2-diag
   LASPH  =      T    aspherical Exc in radial PAW
 Electronic Relaxation 1
   ENCUT  =  520.0 eV  38.22 Ry    6.18 a.u.  17.94 17.94 17.94*2*pi/ulx,y,z
   ENINI  =  520.0     initial cutoff
   ENAUG  = 1041.7 eV  augmentation charge cutoff
   NELM   =    100;   NELMIN=  2; NELMDL=-10     # of ELM steps 
   EDIFF  = 0.1E-05   stopping-criterion for ELM
   LREAL  =      T    real-space projection
   NLSPLINE    = F    spline interpolate recip. space projectors
   LCOMPAT=      F    compatible to vasp.4.4
   GGA_COMPAT  = T    GGA compatible to vasp.4.4-vasp.4.6
   LMAXPAW     = -100 max onsite density
   LMAXMIX     =    4 max onsite mixed and CHGCAR
   VOSKOWN=      0    Vosko Wilk Nusair interpolation
   ROPT   =   -0.00025  -0.00025  -0.00025  -0.00025
 Ionic relaxation
   EDIFFG = -.1E-02   stopping-criterion for IOM
   NSW    =   1000    number of steps for IOM
   NBLOCK =      1;   KBLOCK =   1000    inner block; outer block 
   IBRION =      2    ionic relax: 0-MD 1-quasi-New 2-CG
   NFREE  =      1    steps in history (QN), initial steepest desc. (CG)
   ISIF   =      2    stress and relaxation
   IWAVPR =     11    prediction:  0-non 1-charg 2-wave 3-comb
   ISYM   =      2    0-nonsym 1-usesym 2-fastsym
   LCORR  =      T    Harris-Foulkes like correction to forces

   POTIM  = 0.2000    time-step for ionic-motion
   TEIN   =    0.0    initial temperature
   TEBEG  =    0.0;   TEEND  =   0.0 temperature during run
   SMASS  =  -3.00    Nose mass-parameter (am)
   estimated Nose-frequenzy (Omega)   =  0.10E-29 period in steps = 0.31E+47 mass=  -0.213E-26a.u.
   SCALEE = 1.0000    scale energy and forces
   NPACO  =    256;   APACO  = 10.0  distance and # of slots for P.C.
   PSTRESS=    0.0 pullay stress

  Mass of Ions in am
   POMASS =   7.01 30.97 32.07 35.45
  Ionic Valenz
   ZVAL   =   3.00  5.00  6.00  7.00
  Atomic Wigner-Seitz radii
   RWIGS  =  -1.00 -1.00 -1.00 -1.00
  virtual crystal weights 
   VCA    =   1.00  1.00  1.00  1.00
   NELECT =     240.0000    total number of electrons
   NUPDOWN=      -1.0000    fix difference up-down

 DOS related values:
   EMIN   =  10.00;   EMAX   =-10.00  energy-range for DOS
   EFERMI =   0.00;   METHOD = LEGACY      
   ISMEAR =     0;   SIGMA  =   0.03  broadening in eV -4-tet -1-fermi 0-gaus

 Electronic relaxation 2 (details)
   IALGO  =     68    algorithm
   LDIAG  =      T    sub-space diagonalisation (order eigenvalues)
   LSUBROT=      F    optimize rotation matrix (better conditioning)
   TURBO    =      0    0=normal 1=particle mesh
   IRESTART =      0    0=no restart 2=restart with 2 vectors
   NREBOOT  =      0    no. of reboots
   NMIN     =      0    reboot dimension
   EREF     =   0.00    reference energy to select bands
   IMIX   =      4    mixing-type and parameters
     AMIX     =   0.40;   BMIX     =  1.00
     AMIX_MAG =   1.60;   BMIX_MAG =  1.00
     AMIN     =   0.10
     WC   =   100.;   INIMIX=   1;  MIXPRE=   1;  MAXMIX= -45

 Intra band minimization:
   WEIMIN = 0.0010     energy-eigenvalue tresh-hold
   EBREAK =  0.14E-08  absolut break condition
   DEPER  =   0.30     relativ break condition  

   TIME   =   0.40     timestep for ELM

  volume/ion in A,a.u.               =      17.28       116.60
  Fermi-wavevector in a.u.,A,eV,Ry     =   1.054326  1.992387 15.124281  1.111603
  Thomas-Fermi vector in A             =   2.189482
 
 Write flags
   LWAVE        =      F    write WAVECAR
   LDOWNSAMPLE  =      F    k-point downsampling of WAVECAR
   LCHARG       =      F    write CHGCAR
   LVTOT        =      F    write LOCPOT, total local potential
   LVHAR        =      F    write LOCPOT, Hartree potential only
   LELF         =      F    write electronic localiz. function (ELF)
   LORBIT       =      0    0 simple, 1 ext, 2 COOP (PROOUT), +10 PAW based schemes


 Dipole corrections
   LMONO  =      F    monopole corrections only (constant potential shift)
   LDIPOL =      F    correct potential (dipole corrections)
   IDIPOL =      0    1-x, 2-y, 3-z, 4-all directions 
   EPSILON=  1.0000000 bulk dielectric constant

 Exchange correlation treatment:
   GGA     =    PE    GGA type
   LEXCH   =     8    internal setting for exchange type
   LIBXC   =     F    Libxc                    
   VOSKOWN =     0    Vosko Wilk Nusair interpolation
   LHFCALC =     F    Hartree Fock is set to
   LHFONE  =     F    Hartree Fock one center treatment
   AEXX    =    0.0000 exact exchange contribution

 Linear response parameters
   LEPSILON=     F    determine dielectric tensor
   LRPA    =     F    only Hartree local field effects (RPA)
   LNABLA  =     F    use nabla operator in PAW spheres
   LVEL    =     F    velocity operator in full k-point grid
   CSHIFT  =0.1000    complex shift for real part using Kramers Kronig
   OMEGAMAX=  -1.0    maximum frequency
   DEG_THRESHOLD= 0.2000000E-02 threshold for treating states as degnerate
   RTIME   =   -0.100 relaxation time in fs
  (WPLASMAI=    0.000 imaginary part of plasma frequency in eV, 0.658/RTIME)
   DFIELD  = 0.0000000 0.0000000 0.0000000 field for delta impulse in time
 
  Optional k-point grid parameters
   LKPOINTS_OPT  =     F    use optional k-point grid
   KPOINTS_OPT_MODE=     1    mode for optional k-point grid
 
 Orbital magnetization related:
   ORBITALMAG=     F  switch on orbital magnetization
   LCHIMAG   =     F  perturbation theory with respect to B field
   DQ        =  0.001000  dq finite difference perturbation B field
   LLRAUG    =     F  two centre corrections for induced B field
   LBONE     =     F  B-component reconstruction in AE one-centre
   LVGVCALC  =     T  calculate vGv susceptibility
   LVGVAPPL  =     F  apply vGv susceptibility instead of pGv for G=0

 Random number generation:
   RANDOM_GENERATOR = DEFAULT
   PCG_SEED         = not used


--------------------------------------------------------------------------------------------------------


 conjugate gradient relaxation of ions
 charge density and potential will be updated during run
 spin polarized calculation
 RMM-DIIS sequential band-by-band and
  variant of blocked Davidson during initial phase
 perform sub-space diagonalisation
    before iterative eigenvector-optimisation
 modified Broyden-mixing scheme, WC =      100.0
 initial mixing is a Kerker type mixing with AMIX =  0.4000 and BMIX =      1.0000
 Hartree-type preconditioning will be used
 using additional bands           56
 real space projection scheme for non local part
 use partial core corrections
 calculate Harris-corrections to forces 
   (improved forces if not selfconsistent)
 use gradient corrections 
 use of overlap-Matrix (Vanderbilt PP)
 Gauss-broadening in eV      SIGMA  =   0.03


--------------------------------------------------------------------------------------------------------


  energy-cutoff  :      520.00
  volume of cell :      898.49
      direct lattice vectors                 reciprocal lattice vectors
     9.649474542  0.000000000  0.000000000     0.103632586  0.000000000  0.000000000
     0.000000000  9.649474542  0.000000000     0.000000000  0.103632586  0.000000000
     0.000000000  0.000000000  9.649474542     0.000000000  0.000000000  0.103632586

  length of vectors
     9.649474542  9.649474542  9.649474542     0.103632586  0.103632586  0.103632586


 
 k-points in units of 2pi/SCALE and weight: Automatic mesh                          
   0.02590815  0.02590815  0.02590815       0.250
  -0.02590815  0.02590815  0.02590815       0.250
  -0.02590815 -0.02590815  0.02590815       0.250
   0.02590815 -0.02590815  0.02590815       0.250
 
 k-points in reciprocal lattice and weights: Automatic mesh                          
   0.25000000  0.25000000  0.25000000       0.250
  -0.25000000  0.25000000  0.25000000       0.250
  -0.25000000 -0.25000000  0.25000000       0.250
   0.25000000 -0.25000000  0.25000000       0.250
 
 position of ions in fractional coordinates (direct lattice) 
   0.96578945  0.32073064  0.34294723
   0.98735808  0.69779396  0.71723390
   0.02920258  0.34620553  0.71294490
   0.03267958  0.84427580  0.21593733
   0.19271973  0.19410909  0.99875132
   0.21988088  0.80428058  0.01770535
   0.83822281  0.18178934  0.04675647
   0.82847547  0.81953226  0.96292497
   0.32606225  0.95867383  0.34811229
   0.18770538  0.01604971  0.79021214
   0.72920358  0.98652369  0.71569075
   0.67736977  0.02488185  0.30687504
   0.17982036  0.66439328  0.45957339
   0.24394107  0.24155298  0.53081615
   0.80419585  0.66924617  0.52173340
   0.70528050  0.22639753  0.49334689
   0.33702991  0.46327787  0.83013928
   0.28985670  0.51786907  0.19683870
   0.71700062  0.48773187  0.21241193
   0.67572786  0.54430675  0.84295180
   0.47233406  0.18895954  0.71289647
   0.48263212  0.70928991  0.18490756
   0.52408848  0.29124889  0.17893152
   0.52726970  0.79905542  0.65750575
   0.49108950  0.50067342  0.50722519
   0.50907401  0.99953641  0.99891016
   0.99988218  0.50452432  0.01469887
   0.99908607  0.00039355  0.50086649
   0.13140192  0.87058947  0.60629361
   0.11809122  0.11296348  0.36476561
   0.86330791  0.88028827  0.39153564
   0.89809888  0.13695149  0.62970776
   0.89000327  0.64259459  0.13186558
   0.86726399  0.38741176  0.89712027
   0.13657777  0.60894043  0.88875616
   0.10681148  0.37181297  0.14204188
   0.63239138  0.13646123  0.89305419
   0.64017114  0.87784939  0.11392499
   0.37943414  0.10035012  0.13480298
   0.39412551  0.88267951  0.86339607
   0.60805560  0.63168442  0.38626437
   0.61271250  0.39143787  0.64396035
   0.36095517  0.61665425  0.62754687
   0.38147945  0.37081842  0.37948702
   0.75390229  0.75164276  0.74548729
   0.74766678  0.25371818  0.26105940
   0.25487712  0.74935701  0.24745961
   0.24587192  0.24755611  0.76761586
   0.02444067  0.98695938  0.99610379
   0.99622853  0.50700459  0.52110409
   0.52615801  0.02262369  0.52061531
   0.49966255  0.50100673  0.03546739
 
 position of ions in cartesian coordinates  (Angst):
   9.31936075  3.09488216  3.30926053
   9.52748665  6.73334510  6.92093030
   0.28178952  3.34070143  6.87954370
   0.31534076  8.14681781  2.08368180
   1.85964412  1.87305068  9.63742548
   2.12173497  7.76088497  0.17084737
   8.08840969  1.75417158  0.45117539
   7.99435297  7.90805570  9.29171994
   3.14632939  9.25069871  3.35910068
   1.81125826  0.15487129  7.62513193
   7.03643134  9.51943526  6.90603966
   6.53626234  0.24009677  2.96118293
   1.73517202  6.41104608  4.43464176
   2.35390319  2.33085934  5.12209695
   7.76006738  6.45787386  5.03445311
   6.80558627  2.18461720  4.76053828
   3.25216158  4.47038800  8.01040788
   2.79696481  4.99716436  1.89939002
   6.91867922  4.70635628  2.04966353
   6.52041881  5.25227415  8.13404196
   4.55777549  1.82336030  6.87907636
   4.65714631  6.84427497  1.78426075
   5.05717842  2.81039870  1.72659515
   5.08787558  7.71046493  6.34458500
   4.73875563  4.83123543  4.89445659
   4.91229668  9.64500115  9.63895813
   9.64833763  4.86839454  0.14183642
   9.64065561  0.00379753  4.83309844
   1.26795946  8.40073098  5.85041478
   1.13951821  1.09003820  3.51979643
   8.33046769  8.49431929  3.77811314
   8.66618224  1.32150990  6.07634899
   8.58806385  6.20070013  1.27243352
   8.36864181  3.73831988  8.65673924
   1.31790376  5.87595517  8.57602996
   1.03067468  3.58779979  1.37062949
   6.10224453  1.31677914  8.61750363
   6.17731509  8.47078530  1.09931628
   3.66134003  0.96832594  1.30077789
   3.80310408  8.51739349  8.33131835
   5.86741699  6.09542275  3.72724819
   5.91235363  3.77716978  6.21387903
   3.48302774  5.95038953  6.05549753
   3.68107619  3.57820293  3.66185034
   7.27476092  7.25295772  7.19356063
   7.21459153  2.44824713  2.51908607
   2.45943031  7.23090140  2.38785521
   2.37253480  2.38878636  7.40708973
   0.23583967  9.52363942  9.61187816
   9.61308186  4.89232789  5.02838063
   5.07714832  0.21830671  5.02366420
   4.82148108  4.83445167  0.34224167
 


--------------------------------------------------------------------------------------------------------


 k-point   1 :   0.2500 0.2500 0.2500  plane waves:   24216
 k-point   2 :  -0.2500 0.2500 0.2500  plane waves:   24216
 k-point   3 :  -0.2500-0.2500 0.2500  plane waves:   24216
 k-point   4 :   0.2500-0.2500 0.2500  plane waves:   24216

 maximum and minimum number of plane-waves per node :       777      739

 maximum number of plane-waves:     24216
 maximum index in each direction: 
   IXMAX=   18   IYMAX=   18   IZMAX=   17
   IXMIN=  -18   IYMIN=  -18   IZMIN=  -18


 real space projection operators:
  total allocation   :      28449.02 KBytes
  max/ min on nodes  :       1189.27        723.38


 parallel 3D FFT for wavefunctions:
    minimum data exchange during FFTs selected (reduces bandwidth)
 parallel 3D FFT for charge:
    minimum data exchange during FFTs selected (reduces bandwidth)


 total amount of memory used by VASP MPI-rank0    48212. kBytes
=======================================================================

   base      :      30000. kBytes
   nonlr-proj:       6552. kBytes
   fftplans  :       1747. kBytes
   grid      :       5278. kBytes
   one-center:         62. kBytes
   wavefun   :       4573. kBytes
 
     INWAV:  cpu time      0.0000: real time      0.0000
 Broyden mixing: mesh for mixing (old mesh)
   NGX = 35   NGY = 35   NGZ = 35
  (NGX  =144   NGY  =144   NGZ  =144)
  gives a total of  42875 points

 initial charge density was supplied:
 charge density of overlapping atoms calculated
 number of electron     240.0000000 magnetization      52.0000000
 keeping initial charge density in first step


--------------------------------------------------------------------------------------------------------


 Maximum index for non-local projection operator          590
 Maximum index for augmentation-charges          838 (set IRDMAX)


--------------------------------------------------------------------------------------------------------


 First call to EWALD:  gamma=   0.184
 Maximum number of real-space cells 3x 3x 3
 Maximum number of reciprocal cells 3x 3x 3

    FEWALD:  cpu time      0.0032: real time      0.0036


--------------------------------------- Ionic step        1  -------------------------------------------




--------------------------------------- Iteration      1(   1)  ---------------------------------------


    POTLOK:  cpu time      0.0588: real time      0.0871
    SETDIJ:  cpu time      0.4077: real time      0.4158
     EDDAV:  cpu time      2.5007: real time      2.7789
       DOS:  cpu time      0.0025: real time      0.0039
    --------------------------------------------
      LOOP:  cpu time      2.9697: real time      3.2857

 eigenvalue-minimisations  :  3080
 total energy-change (2. order) : 0.1592229E+04  (-0.1139262E+05)
 number of electron     240.0000000 magnetization      52.0000000
 augmentation part      240.0000000 magnetization      52.0000000

 Free energy of the ion-electron system (eV)
  ---------------------------------------------------
  alpha Z        PSCENC =       302.12791739
  Ewald energy   TEWEN  =     -8852.89368214
  -Hartree energ DENC   =     -2087.08711246
  -exchange      EXHF   =         0.00000000
  -V(xc)+E(xc)   XCENC  =       534.36911912
  PAW double counting   =      8141.38806575    -8271.61346273
  entropy T*S    EENTRO =        -0.00885273
  eigenvalues    EBANDS =      -877.19340474
  atomic energy  EATOM  =     12703.13999606
  Solvation  Ediel_sol  =         0.00000000
  ---------------------------------------------------
  free energy    TOTEN  =      1592.22858352 eV

  energy without entropy =     1592.23743625  energy(sigma->0) =     1592.23300989


--------------------------------------------------------------------------------------------------------




--------------------------------------- Iteration      1(   2)  ---------------------------------------


     EDDAV:  cpu time      2.7359: real time      2.7729
       DOS:  cpu time      0.0004: real time      0.0004
    --------------------------------------------
      LOOP:  cpu time      2.7363: real time      2.7733

 eigenvalue-minimisations  :  3856
 total energy-change (2. order) :-0.1648887E+04  (-0.1550138E+04)
 number of electron     240.0000000 magnetization      52.0000000
 augmentation part      240.0000000 magnetization      52.0000000

 Free energy of the ion-electron system (eV)
  ---------------------------------------------------
  alpha Z        PSCENC =       302.12791739
  Ewald energy   TEWEN  =     -8852.89368214
  -Hartree energ DENC   =     -2087.08711246
  -exchange      EXHF   =         0.00000000
  -V(xc)+E(xc)   XCENC  =       534.36911912
  PAW double counting   =      8141.38806575    -8271.61346273
  entropy T*S    EENTRO =        -0.00000000
  eigenvalues    EBANDS =     -2526.08971981
  atomic energy  EATOM  =     12703.13999606
  Solvation  Ediel_sol  =         0.00000000
  ---------------------------------------------------
  free energy    TOTEN  =       -56.65887882 eV

  energy without entropy =      -56.65887882  energy(sigma->0) =      -56.65887882


--------------------------------------------------------------------------------------------------------




--------------------------------------- Iteration      1(   3)  ---------------------------------------


     EDDAV:  cpu time      2.6601: real time      2.6840
       DOS:  cpu time      0.0004: real time      0.0004
    --------------------------------------------
      LOOP:  cpu time      2.6605: real time      2.6844

 eigenvalue-minimisations  :  3768
 total energy-change (2. order) :-0.1716011E+03  (-0.1695266E+03)
 number of electron     240.0000000 magnetization      52.0000000
 augmentation part      240.0000000 magnetization      52.0000000

 Free energy of the ion-electron system (eV)
  ---------------------------------------------------
  alpha Z        PSCENC =       302.12791739
  Ewald energy   TEWEN  =     -8852.89368214
  -Hartree energ DENC   =     -2087.08711246
  -exchange      EXHF   =         0.00000000
  -V(xc)+E(xc)   XCENC  =       534.36911912
  PAW double counting   =      8141.38806575    -8271.61346273
  entropy T*S    EENTRO =        -0.00000000
  eigenvalues    EBANDS =     -2697.69082948
  atomic energy  EATOM  =     12703.13999606
  Solvation  Ediel_sol  =         0.00000000
  ---------------------------------------------------
  free energy    TOTEN  =      -228.25998849 eV

  energy without entropy =     -228.25998849  energy(sigma->0) =     -228.25998849


--------------------------------------------------------------------------------------------------------




--------------------------------------- Iteration      1(   4)  ---------------------------------------


     EDDAV:  cpu time      3.2204: real time      3.2491
       DOS:  cpu time      0.0004: real time      0.0004
    --------------------------------------------
      LOOP:  cpu time      3.2208: real time      3.2495

 eigenvalue-minimisations  :  4752
 total energy-change (2. order) :-0.1336514E+02  (-0.1334043E+02)
 number of electron     240.0000000 magnetization      52.0000000
 augmentation part      240.0000000 magnetization      52.0000000

 Free energy of the ion-electron system (eV)
  ---------------------------------------------------
  alpha Z        PSCENC =       302.12791739
  Ewald energy   TEWEN  =     -8852.89368214
  -Hartree energ DENC   =     -2087.08711246
  -exchange      EXHF   =         0.00000000
  -V(xc)+E(xc)   XCENC  =       534.36911912
  PAW double counting   =      8141.38806575    -8271.61346273
  entropy T*S    EENTRO =        -0.00000000
  eigenvalues    EBANDS =     -2711.05596527
  atomic energy  EATOM  =     12703.13999606
  Solvation  Ediel_sol  =         0.00000000
  ---------------------------------------------------
  free energy    TOTEN  =      -241.62512428 eV

  energy without entropy =     -241.62512428  energy(sigma->0) =     -241.62512428


--------------------------------------------------------------------------------------------------------




--------------------------------------- Iteration      1(   5)  ---------------------------------------


     EDDAV:  cpu time      3.0085: real time      3.0368
       DOS:  cpu time      0.0004: real time      0.0004
    --------------------------------------------
      LOOP:  cpu time      3.0088: real time      3.0372

 eigenvalue-minimisations  :  4464
 total energy-change (2. order) :-0.2358344E+00  (-0.2357295E+00)
 number of electron     240.0000000 magnetization      52.0000000
 augmentation part      240.0000000 magnetization      52.0000000

 Free energy of the ion-electron system (eV)
  ---------------------------------------------------
  alpha Z        PSCENC =       302.12791739
  Ewald energy   TEWEN  =     -8852.89368214
  -Hartree energ DENC   =     -2087.08711246
  -exchange      EXHF   =         0.00000000
  -V(xc)+E(xc)   XCENC  =       534.36911912
  PAW double counting   =      8141.38806575    -8271.61346273
  entropy T*S    EENTRO =        -0.00000000
  eigenvalues    EBANDS =     -2711.29179967
  atomic energy  EATOM  =     12703.13999606
  Solvation  Ediel_sol  =         0.00000000
  ---------------------------------------------------
  free energy    TOTEN  =      -241.86095868 eV

  energy without entropy =     -241.86095868  energy(sigma->0) =     -241.86095868


--------------------------------------------------------------------------------------------------------




--------------------------------------- Iteration      1(   6)  ---------------------------------------


     EDDAV:  cpu time      3.3233: real time      3.3664
       DOS:  cpu time      0.0004: real time      0.0004
    --------------------------------------------
      LOOP:  cpu time      3.3238: real time      3.3668

 eigenvalue-minimisations  :  4624
 total energy-change (2. order) :-0.1060177E-01  (-0.1060050E-01)
 number of electron     240.0000000 magnetization      52.0000000
 augmentation part      240.0000000 magnetization      52.0000000

 Free energy of the ion-electron system (eV)
  ---------------------------------------------------
  alpha Z        PSCENC =       302.12791739
  Ewald energy   TEWEN  =     -8852.89368214
  -Hartree energ DENC   =     -2087.08711246
  -exchange      EXHF   =         0.00000000
  -V(xc)+E(xc)   XCENC  =       534.36911912
  PAW double counting   =      8141.38806575    -8271.61346273
  entropy T*S    EENTRO =        -0.00000000
  eigenvalues    EBANDS =     -2711.30240144
  atomic energy  EATOM  =     12703.13999606
  Solvation  Ediel_sol  =         0.00000000
  ---------------------------------------------------
  free energy    TOTEN  =      -241.87156045 eV

  energy without entropy =     -241.87156045  energy(sigma->0) =     -241.87156045


--------------------------------------------------------------------------------------------------------




--------------------------------------- Iteration      1(   7)  ---------------------------------------


     EDDAV:  cpu time      3.0713: real time      3.1057
       DOS:  cpu time      0.0004: real time      0.0004
    --------------------------------------------
      LOOP:  cpu time      3.0717: real time      3.1061

 eigenvalue-minimisations  :  4552
 total energy-change (2. order) :-0.4248686E-03  (-0.4248441E-03)
 number of electron     240.0000000 magnetization      52.0000000
 augmentation part      240.0000000 magnetization      52.0000000

 Free energy of the ion-electron system (eV)
  ---------------------------------------------------
  alpha Z        PSCENC =       302.12791739
  Ewald energy   TEWEN  =     -8852.89368214
  -Hartree energ DENC   =     -2087.08711246
  -exchange      EXHF   =         0.00000000
  -V(xc)+E(xc)   XCENC  =       534.36911912
  PAW double counting   =      8141.38806575    -8271.61346273
  entropy T*S    EENTRO =        -0.00000000
  eigenvalues    EBANDS =     -2711.30282631
  atomic energy  EATOM  =     12703.13999606
  Solvation  Ediel_sol  =         0.00000000
  ---------------------------------------------------
  free energy    TOTEN  =      -241.87198532 eV

  energy without entropy =     -241.87198532  energy(sigma->0) =     -241.87198532


--------------------------------------------------------------------------------------------------------




--------------------------------------- Iteration      1(   8)  ---------------------------------------


     EDDAV:  cpu time      3.0644: real time      3.0896
       DOS:  cpu time      0.0005: real time      0.0005
    --------------------------------------------
      LOOP:  cpu time      3.0649: real time      3.0901

 eigenvalue-minimisations  :  4560
 total energy-change (2. order) :-0.2626168E-04  (-0.2626064E-04)
 number of electron     240.0000000 magnetization      52.0000000
 augmentation part      240.0000000 magnetization      52.0000000

 Free energy of the ion-electron system (eV)
  ---------------------------------------------------
  alpha Z        PSCENC =       302.12791739
  Ewald energy   TEWEN  =     -8852.89368214
  -Hartree energ DENC   =     -2087.08711246
  -exchange      EXHF   =         0.00000000
  -V(xc)+E(xc)   XCENC  =       534.36911912
  PAW double counting   =      8141.38806575    -8271.61346273
  entropy T*S    EENTRO =        -0.00000000
  eigenvalues    EBANDS =     -2711.30285257
  atomic energy  EATOM  =     12703.13999606
  Solvation  Ediel_sol  =         0.00000000
  ---------------------------------------------------
  free energy    TOTEN  =      -241.87201158 eV

  energy without entropy =     -241.87201158  energy(sigma->0) =     -241.87201158


--------------------------------------------------------------------------------------------------------




--------------------------------------- Iteration      1(   9)  ---------------------------------------


     EDDAV:  cpu time      3.1188: real time      3.1582
       DOS:  cpu time      0.0004: real time      0.0004
    --------------------------------------------
      LOOP:  cpu time      3.1192: real time      3.1586

 eigenvalue-minimisations  :  4496
 total energy-change (2. order) :-0.1777069E-05  (-0.1777214E-05)
 number of electron     240.0000000 magnetization      52.0000000
 augmentation part      240.0000000 magnetization      52.0000000

 Free energy of the ion-electron system (eV)
  ---------------------------------------------------
  alpha Z        PSCENC =       302.12791739
  Ewald energy   TEWEN  =     -8852.89368214
  -Hartree energ DENC   =     -2087.08711246
  -exchange      EXHF   =         0.00000000
  -V(xc)+E(xc)   XCENC  =       534.36911912
  PAW double counting   =      8141.38806575    -8271.61346273
  entropy T*S    EENTRO =        -0.00000000
  eigenvalues    EBANDS =     -2711.30285435
  atomic energy  EATOM  =     12703.13999606
  Solvation  Ediel_sol  =         0.00000000
  ---------------------------------------------------
  free energy    TOTEN  =      -241.87201336 eV

  energy without entropy =     -241.87201336  energy(sigma->0) =     -241.87201336


--------------------------------------------------------------------------------------------------------




--------------------------------------- Iteration      1(  10)  ---------------------------------------


     EDDAV:  cpu time      2.0194: real time      2.0360
       DOS:  cpu time      0.0004: real time      0.0004
    CHARGE:  cpu time      0.0685: real time      0.0745
    MIXING:  cpu time      0.0020: real time      0.0035
    --------------------------------------------
      LOOP:  cpu time      2.0904: real time      2.1144

 eigenvalue-minimisations  :  2656
 total energy-change (2. order) :-0.9116047E-07  (-0.9137855E-07)
 number of electron     240.0000002 magnetization      27.2275050
 augmentation part        1.4919093 magnetization      27.6698329

 Broyden mixing:
  rms(total) = 0.64165E+01    rms(broyden)= 0.64159E+01
  rms(prec ) = 0.66533E+01
  weight for this iteration     100.00

 Free energy of the ion-electron system (eV)
  ---------------------------------------------------
  alpha Z        PSCENC =       302.12791739
  Ewald energy   TEWEN  =     -8852.89368214
  -Hartree energ DENC   =     -2087.08711246
  -exchange      EXHF   =         0.00000000
  -V(xc)+E(xc)   XCENC  =       534.36911912
  PAW double counting   =      8141.38806575    -8271.61346273
  entropy T*S    EENTRO =        -0.00000000
  eigenvalues    EBANDS =     -2711.30285444
  atomic energy  EATOM  =     12703.13999606
  Solvation  Ediel_sol  =         0.00000000
  ---------------------------------------------------
  free energy    TOTEN  =      -241.87201345 eV

  energy without entropy =     -241.87201345  energy(sigma->0) =     -241.87201345


--------------------------------------------------------------------------------------------------------




--------------------------------------- Iteration      1(  11)  ---------------------------------------


    POTLOK:  cpu time      0.0551: real time      0.0560
    SETDIJ:  cpu time      0.4015: real time      0.4048
    EDDIAG:  cpu time      0.3683: real time      0.3709
  RMM-DIIS:  cpu time      1.1862: real time      1.1969
    ORTHCH:  cpu time      0.0696: real time      0.0704
       DOS:  cpu time      0.0005: real time      0.0005
    CHARGE:  cpu time      0.0644: real time      0.0669
    MIXING:  cpu time      0.0012: real time      0.0037
    --------------------------------------------
      LOOP:  cpu time      2.1467: real time      2.1700

 eigenvalue-minimisations  :  2816
 total energy-change (2. order) : 0.5369822E+01  (-0.4662415E+01)
 number of electron     240.0000002 magnetization      16.3040873
 augmentation part        1.7057669 magnetization      16.4870288

 Broyden mixing:
  rms(total) = 0.33010E+01    rms(broyden)= 0.33008E+01
  rms(prec ) = 0.34137E+01
  weight for this iteration     100.00

 eigenvalues of (default mixing * dielectric matrix)
  average eigenvalue GAMMA=   0.7251
  0.7251

 Free energy of the ion-electron system (eV)
  ---------------------------------------------------
  alpha Z        PSCENC =       302.12791739
  Ewald energy   TEWEN  =     -8852.89368214
  -Hartree energ DENC   =     -2134.38239496
  -exchange      EXHF   =         0.00000000
  -V(xc)+E(xc)   XCENC  =       542.61813335
  PAW double counting   =      8928.56425268    -9064.86591879
  entropy T*S    EENTRO =        -0.00000000
  eigenvalues    EBANDS =     -2660.81049512
  atomic energy  EATOM  =     12703.13999606
  Solvation  Ediel_sol  =         0.00000000
  ---------------------------------------------------
  free energy    TOTEN  =      -236.50219152 eV

  energy without entropy =     -236.50219152  energy(sigma->0) =     -236.50219152


--------------------------------------------------------------------------------------------------------




--------------------------------------- Iteration      1(  12)  ---------------------------------------


    POTLOK:  cpu time      0.0537: real time      0.0546
    SETDIJ:  cpu time      0.3988: real time      0.4009
    EDDIAG:  cpu time      0.3637: real time      0.3662
  RMM-DIIS:  cpu time      1.2343: real time      1.2450
    ORTHCH:  cpu time      0.0684: real time      0.0690
       DOS:  cpu time      0.0004: real time      0.0004
    CHARGE:  cpu time      0.0653: real time      0.0668
    MIXING:  cpu time      0.0011: real time      0.0011
    --------------------------------------------
      LOOP:  cpu time      2.1857: real time      2.2041

 eigenvalue-minimisations  :  2950
 total energy-change (2. order) :-0.1961459E+02  (-0.2101505E+01)
 number of electron     240.0000002 magnetization       0.5076780
 augmentation part        1.8045111 magnetization       0.8482402

 Broyden mixing:
  rms(total) = 0.20275E+01    rms(broyden)= 0.20275E+01
  rms(prec ) = 0.20871E+01
  weight for this iteration     100.00

 eigenvalues of (default mixing * dielectric matrix)
  average eigenvalue GAMMA=   1.1527
  1.6349  0.6706

 Free energy of the ion-electron system (eV)
  ---------------------------------------------------
  alpha Z        PSCENC =       302.12791739
  Ewald energy   TEWEN  =     -8852.89368214
  -Hartree energ DENC   =     -2157.76714212
  -exchange      EXHF   =         0.00000000
  -V(xc)+E(xc)   XCENC  =       536.27389654
  PAW double counting   =      9280.83777551    -9420.73106837
  entropy T*S    EENTRO =        -0.00000000
  eigenvalues    EBANDS =     -2647.10447774
  atomic energy  EATOM  =     12703.13999606
  Solvation  Ediel_sol  =         0.00000000
  ---------------------------------------------------
  free energy    TOTEN  =      -256.11678486 eV

  energy without entropy =     -256.11678486  energy(sigma->0) =     -256.11678486


--------------------------------------------------------------------------------------------------------




--------------------------------------- Iteration      1(  13)  ---------------------------------------


    POTLOK:  cpu time      0.0524: real time      0.0534
    SETDIJ:  cpu time      0.3989: real time      0.4006
    EDDIAG:  cpu time      0.3615: real time      0.3637
  RMM-DIIS:  cpu time      1.2164: real time      1.2282
    ORTHCH:  cpu time      0.0673: real time      0.0682
       DOS:  cpu time      0.0004: real time      0.0004
    CHARGE:  cpu time      0.0650: real time      0.0666
    MIXING:  cpu time      0.0010: real time      0.0010
    --------------------------------------------
      LOOP:  cpu time      2.1629: real time      2.1821

 eigenvalue-minimisations  :  2909
 total energy-change (2. order) :-0.2503803E+01  (-0.8674241E+00)
 number of electron     240.0000001 magnetization      -1.9039647
 augmentation part        1.9048511 magnetization      -1.8000899

 Broyden mixing:
  rms(total) = 0.67397E+00    rms(broyden)= 0.67397E+00
  rms(prec ) = 0.70565E+00
  weight for this iteration     100.00

 eigenvalues of (default mixing * dielectric matrix)
  average eigenvalue GAMMA=   1.3040
  2.5129  0.7467  0.6523

 Free energy of the ion-electron system (eV)
  ---------------------------------------------------
  alpha Z        PSCENC =       302.12791739
  Ewald energy   TEWEN  =     -8852.89368214
  -Hartree energ DENC   =     -2184.43998858
  -exchange      EXHF   =         0.00000000
  -V(xc)+E(xc)   XCENC  =       537.82399494
  PAW double counting   =      9782.26970660    -9926.12507272
  entropy T*S    EENTRO =        -0.00000000
  eigenvalues    EBANDS =     -2620.52345915
  atomic energy  EATOM  =     12703.13999606
  Solvation  Ediel_sol  =         0.00000000
  ---------------------------------------------------
  free energy    TOTEN  =      -258.62058760 eV

  energy without entropy =     -258.62058760  energy(sigma->0) =     -258.62058760


--------------------------------------------------------------------------------------------------------




--------------------------------------- Iteration      1(  14)  ---------------------------------------


    POTLOK:  cpu time      0.0536: real time      0.0545
    SETDIJ:  cpu time      0.4003: real time      0.4018
    EDDIAG:  cpu time      0.3627: real time      0.3658
  RMM-DIIS:  cpu time      1.5645: real time      1.5777
    ORTHCH:  cpu time      0.0682: real time      0.0689
       DOS:  cpu time      0.0005: real time      0.0005
    CHARGE:  cpu time      0.0653: real time      0.0669
    MIXING:  cpu time      0.0011: real time      0.0011
    --------------------------------------------
      LOOP:  cpu time      2.5161: real time      2.5372

 eigenvalue-minimisations  :  3719
 total energy-change (2. order) :-0.1875345E+00  (-0.1888701E+00)
 number of electron     240.0000001 magnetization      -0.8817341
 augmentation part        1.8749543 magnetization      -0.8550936

 Broyden mixing:
  rms(total) = 0.32041E+00    rms(broyden)= 0.32041E+00
  rms(prec ) = 0.35415E+00
  weight for this iteration     100.00

 eigenvalues of (default mixing * dielectric matrix)
  average eigenvalue GAMMA=   1.2689
  2.6214  1.1720  0.6899  0.5924

 Free energy of the ion-electron system (eV)
  ---------------------------------------------------
  alpha Z        PSCENC =       302.12791739
  Ewald energy   TEWEN  =     -8852.89368214
  -Hartree energ DENC   =     -2185.69292949
  -exchange      EXHF   =         0.00000000
  -V(xc)+E(xc)   XCENC  =       538.27246834
  PAW double counting   =      9860.45640939   -10005.12341621
  entropy T*S    EENTRO =        -0.00000000
  eigenvalues    EBANDS =     -2619.09488545
  atomic energy  EATOM  =     12703.13999606
  Solvation  Ediel_sol  =         0.00000000
  ---------------------------------------------------
  free energy    TOTEN  =      -258.80812210 eV

  energy without entropy =     -258.80812210  energy(sigma->0) =     -258.80812210


--------------------------------------------------------------------------------------------------------




--------------------------------------- Iteration      1(  15)  ---------------------------------------


    POTLOK:  cpu time      0.0529: real time      0.0538
    SETDIJ:  cpu time      0.3992: real time      0.4010
    EDDIAG:  cpu time      0.3601: real time      0.3622
  RMM-DIIS:  cpu time      1.2942: real time      1.3052
    ORTHCH:  cpu time      0.0673: real time      0.0676
       DOS:  cpu time      0.0005: real time      0.0005
    CHARGE:  cpu time      0.0654: real time      0.0665
    MIXING:  cpu time      0.0011: real time      0.0011
    --------------------------------------------
      LOOP:  cpu time      2.2408: real time      2.2579

 eigenvalue-minimisations  :  3085
 total energy-change (2. order) : 0.2284195E-01  (-0.3275781E-01)
 number of electron     240.0000001 magnetization      -0.2417396
 augmentation part        1.8258700 magnetization      -0.2157094

 Broyden mixing:
  rms(total) = 0.66876E-01    rms(broyden)= 0.66873E-01
  rms(prec ) = 0.78756E-01
  weight for this iteration     100.00

 eigenvalues of (default mixing * dielectric matrix)
  average eigenvalue GAMMA=   1.2706
  2.5406  1.5785  0.9457  0.6853  0.6031

 Free energy of the ion-electron system (eV)
  ---------------------------------------------------
  alpha Z        PSCENC =       302.12791739
  Ewald energy   TEWEN  =     -8852.89368214
  -Hartree energ DENC   =     -2181.18927233
  -exchange      EXHF   =         0.00000000
  -V(xc)+E(xc)   XCENC  =       537.91375612
  PAW double counting   =      9832.22629658    -9976.70806354
  entropy T*S    EENTRO =        -0.00000000
  eigenvalues    EBANDS =     -2623.40222830
  atomic energy  EATOM  =     12703.13999606
  Solvation  Ediel_sol  =         0.00000000
  ---------------------------------------------------
  free energy    TOTEN  =      -258.78528015 eV

  energy without entropy =     -258.78528015  energy(sigma->0) =     -258.78528015


--------------------------------------------------------------------------------------------------------




--------------------------------------- Iteration      1(  16)  ---------------------------------------


    POTLOK:  cpu time      0.0521: real time      0.0530
    SETDIJ:  cpu time      0.3982: real time      0.3998
    EDDIAG:  cpu time      0.3595: real time      0.3620
  RMM-DIIS:  cpu time      1.3044: real time      1.3159
    ORTHCH:  cpu time      0.0668: real time      0.0671
       DOS:  cpu time      0.0005: real time      0.0005
    CHARGE:  cpu time      0.0650: real time      0.0662
    MIXING:  cpu time      0.0012: real time      0.0012
    --------------------------------------------
      LOOP:  cpu time      2.2475: real time      2.2657

 eigenvalue-minimisations  :  3078
 total energy-change (2. order) :-0.1969636E-01  (-0.9713204E-02)
 number of electron     240.0000001 magnetization      -0.1077632
 augmentation part        1.8040023 magnetization      -0.0938366

 Broyden mixing:
  rms(total) = 0.30326E-01    rms(broyden)= 0.30324E-01
  rms(prec ) = 0.36526E-01
  weight for this iteration     100.00

 eigenvalues of (default mixing * dielectric matrix)
  average eigenvalue GAMMA=   1.2505
  2.4585  1.9374  1.0414  0.6211  0.6991  0.7457

 Free energy of the ion-electron system (eV)
  ---------------------------------------------------
  alpha Z        PSCENC =       302.12791739
  Ewald energy   TEWEN  =     -8852.89368214
  -Hartree energ DENC   =     -2180.67991643
  -exchange      EXHF   =         0.00000000
  -V(xc)+E(xc)   XCENC  =       537.82859311
  PAW double counting   =      9820.63435711    -9964.88617866
  entropy T*S    EENTRO =        -0.00000000
  eigenvalues    EBANDS =     -2624.07606295
  atomic energy  EATOM  =     12703.13999606
[...]
 -0.347   0.356   0.001   0.415   0.014   0.047   0.003   0.000   0.000   0.003   0.002   0.005  -0.003  -0.001
 -0.632   0.649   0.002   0.014   0.451   0.024   0.000   0.004   0.000  -0.003   0.003  -0.003   0.003  -0.005
 -0.348   0.357   0.001   0.047   0.024   0.687   0.000   0.000   0.005  -0.006  -0.003   0.004  -0.008  -0.007
 -0.003   0.003   0.000   0.003   0.000   0.000   0.000   0.000   0.000   0.000   0.000   0.000  -0.000  -0.000
 -0.006   0.005   0.000   0.000   0.004   0.000   0.000   0.000   0.000  -0.000   0.000  -0.000   0.000  -0.000
 -0.002   0.002   0.000   0.000   0.000   0.005   0.000   0.000   0.000  -0.000  -0.000   0.000  -0.000  -0.000
  0.005  -0.005  -0.000   0.003  -0.003  -0.006   0.000  -0.000  -0.000   0.000   0.000   0.000  -0.000   0.000
  0.005  -0.006  -0.000   0.002   0.003  -0.003   0.000   0.000  -0.000   0.000   0.000  -0.000   0.000  -0.000
 -0.006   0.006   0.000   0.005  -0.003   0.004   0.000  -0.000   0.000   0.000  -0.000   0.000  -0.000  -0.000
  0.003  -0.004  -0.000  -0.003   0.003  -0.008  -0.000   0.000  -0.000  -0.000   0.000  -0.000   0.000   0.000
  0.016  -0.016  -0.000  -0.001  -0.005  -0.007  -0.000  -0.000  -0.000   0.000  -0.000  -0.000   0.000   0.000
 total augmentation occupancy for first ion, spin component:           2
 -0.000   0.000  -0.000   0.000   0.000   0.000   0.000  -0.000  -0.000   0.000  -0.000   0.000  -0.000  -0.000
  0.000  -0.000   0.000  -0.000  -0.000  -0.000  -0.000   0.000   0.000  -0.000   0.000  -0.000   0.000   0.000
 -0.000   0.000   0.000   0.000   0.000   0.000  -0.000   0.000   0.000  -0.000  -0.000  -0.000  -0.000  -0.000
  0.000  -0.000   0.000  -0.000   0.000  -0.000  -0.000   0.000   0.000   0.000  -0.000   0.000   0.000   0.000
  0.000  -0.000   0.000   0.000  -0.000   0.000  -0.000   0.000   0.000  -0.000   0.000   0.000   0.000  -0.000
  0.000  -0.000   0.000  -0.000   0.000  -0.000  -0.000   0.000  -0.000  -0.000   0.000  -0.000   0.000   0.000
  0.000  -0.000  -0.000  -0.000  -0.000  -0.000  -0.000   0.000  -0.000   0.000  -0.000  -0.000   0.000   0.000
 -0.000   0.000   0.000   0.000   0.000   0.000   0.000   0.000   0.000  -0.000  -0.000   0.000   0.000  -0.000
 -0.000   0.000   0.000   0.000   0.000  -0.000  -0.000   0.000  -0.000   0.000   0.000  -0.000   0.000   0.000
  0.000  -0.000  -0.000   0.000  -0.000  -0.000   0.000  -0.000   0.000   0.000  -0.000   0.000   0.000   0.000
 -0.000   0.000  -0.000  -0.000   0.000   0.000  -0.000  -0.000   0.000  -0.000   0.000  -0.000   0.000   0.000
  0.000  -0.000  -0.000   0.000   0.000  -0.000  -0.000   0.000  -0.000   0.000  -0.000   0.000  -0.000  -0.000
 -0.000   0.000  -0.000   0.000   0.000   0.000   0.000   0.000   0.000   0.000   0.000  -0.000   0.000   0.000
 -0.000   0.000  -0.000   0.000  -0.000   0.000   0.000  -0.000   0.000   0.000   0.000  -0.000   0.000   0.000


------------------------ aborting loop because EDIFF is reached ----------------------------------------


    CHARGE:  cpu time      0.0655: real time      0.0662
    FORLOC:  cpu time      0.0039: real time      0.0039
    FORNL :  cpu time      0.3970: real time      0.3996
    STRESS:  cpu time      1.3764: real time      1.3847
    FORCOR:  cpu time      0.0494: real time      0.0497
    FORHAR:  cpu time      0.0084: real time      0.0085
    MIXING:  cpu time      0.0007: real time      0.0007
    OFIELD:  cpu time      0.0000: real time      0.0000

 ---------------------------------------------------------------------------------------------

         DFTD3 V3.0 Rev 1        
 Edisp (eV)  -13.63104

 E6    (eV) :    -8.3974
 E8    (eV) :    -5.2336
 % E8        : 38.39
    FORVDW:  cpu time      0.2922: real time      0.2944

  FORCE on cell =-STRESS in cart. coord.  units (eV):
  Direction    XX          YY          ZZ          XY          YZ          ZX
  --------------------------------------------------------------------------------------
  Alpha Z   302.12792   302.12792   302.12792
  Ewald   -2967.71295 -2951.83993 -2933.43989    47.77616     4.31372   -32.15595
  Hartree   721.43295   728.90979   732.80566    17.37227    -6.29378   -17.60237
  E(xc)    -947.88129  -947.79162  -947.74522     0.12613     0.02621    -0.07727
  Local   -1463.79199 -1487.09829 -1507.10816   -62.20072     5.19388    48.99695
  n-local  1481.23414  1481.64899  1481.95739     0.75069     0.08721    -0.23969
  augment  -356.97378  -356.80562  -356.74991     0.05155     0.08238    -0.09254
  Kinetic  3247.12815  3244.59922  3242.10276    -2.45647    -2.83203     1.58135
  Fock        0.00000     0.00000     0.00000     0.00000     0.00000     0.00000
  vdW       -14.39999   -14.42849   -14.43296     0.00772     0.01655     0.00238
  -------------------------------------------------------------------------------------
  Total       1.16315    -0.67803    -0.48241     1.42733     0.59415     0.41286
  in kB       2.07413    -1.20906    -0.86024     2.54521     1.05949     0.73620
  external pressure =        0.00 kB  Pullay stress =        0.00 kB


 VOLUME and BASIS-vectors are now :
 -----------------------------------------------------------------------------
  energy-cutoff  :      520.00
  volume of cell :      898.49
      direct lattice vectors                 reciprocal lattice vectors
     9.649474542  0.000000000  0.000000000     0.103632586  0.000000000  0.000000000
     0.000000000  9.649474542  0.000000000     0.000000000  0.103632586  0.000000000
     0.000000000  0.000000000  9.649474542     0.000000000  0.000000000  0.103632586

  length of vectors
     9.649474542  9.649474542  9.649474542     0.103632586  0.103632586  0.103632586


 FORCES acting on ions
    electron-ion (+dipol)            ewald-force                    non-local-force                 convergence-correction
 -----------------------------------------------------------------------------------------------
   -.147E+01 -.101E+02 -.919E+01   0.535E+00 0.918E+01 0.759E+01   0.938E+00 0.874E+00 0.159E+01   -.717E-04 0.320E-05 -.381E-04
   -.227E+01 0.718E+00 -.273E+01   0.155E+01 0.159E+00 0.352E+01   0.718E+00 -.882E+00 -.795E+00   -.887E-04 0.211E-04 -.618E-04
   0.245E+01 -.104E+01 0.525E+01   -.184E+01 0.148E+00 -.437E+01   -.603E+00 0.890E+00 -.883E+00   -.812E-04 -.263E-04 0.178E-04
   0.418E+01 -.596E+01 0.111E+01   -.355E+01 0.474E+01 -.182E+00   -.632E+00 0.122E+01 -.923E+00   -.119E-03 -.933E-04 0.487E-04
   0.415E+01 -.169E+01 -.374E+01   -.327E+01 0.276E+01 0.329E+01   -.890E+00 -.107E+01 0.451E+00   0.443E-04 0.441E-05 0.419E-04
   -.952E+00 -.125E+01 0.613E+01   0.190E+01 0.766E-01 -.519E+01   -.951E+00 0.118E+01 -.934E+00   -.355E-04 0.145E-04 0.127E-03
   -.125E+02 0.137E+02 0.245E+01   0.110E+02 -.121E+02 -.147E+01   0.152E+01 -.157E+01 -.982E+00   -.209E-04 -.171E-04 -.128E-05
   -.317E+01 -.801E+01 0.440E+01   0.181E+01 0.684E+01 -.510E+01   0.136E+01 0.117E+01 0.701E+00   -.244E-04 -.260E-04 0.359E-04
   -.151E+02 -.806E+00 -.169E+02   0.139E+02 -.330E+00 0.151E+02   0.127E+01 0.113E+01 0.176E+01   0.103E-04 0.116E-03 -.746E-04
   0.539E+01 0.249E+01 0.181E+01   -.437E+01 -.163E+01 -.293E+01   -.102E+01 -.861E+00 0.113E+01   -.438E-04 0.100E-03 -.117E-05
   -.225E+01 -.116E+01 -.376E+01   0.333E+01 0.276E+00 0.453E+01   -.109E+01 0.883E+00 -.774E+00   -.572E-04 -.308E-04 -.154E-05
   0.764E+01 0.462E+01 -.572E+00   -.630E+01 -.410E+01 -.417E+00   -.134E+01 -.519E+00 0.986E+00   0.376E-04 -.272E-04 0.321E-05
   0.374E+01 0.713E+01 0.588E+01   -.270E+01 -.628E+01 -.653E+01   -.104E+01 -.845E+00 0.644E+00   -.495E-04 -.329E-04 -.109E-03
   0.186E+00 -.249E+00 0.170E+01   -.449E-01 0.317E+00 -.114E+01   -.148E+00 -.718E-01 -.553E+00   0.133E-03 -.116E-03 -.968E-04
   -.277E+01 0.101E+02 0.684E+01   0.165E+01 -.906E+01 -.611E+01   0.112E+01 -.101E+01 -.717E+00   0.472E-05 0.158E-04 -.934E-04
   -.233E+01 -.507E+01 -.285E+01   0.307E+01 0.612E+01 0.190E+01   -.739E+00 -.106E+01 0.948E+00   -.861E-05 -.294E-04 -.764E-04
   -.138E+02 -.416E+00 -.918E+01   0.122E+02 -.420E+00 0.803E+01   0.162E+01 0.832E+00 0.115E+01   0.203E-04 -.747E-04 0.365E-04
   0.283E+01 0.480E+01 0.257E+01   -.413E+01 -.407E+01 -.158E+01   0.130E+01 -.727E+00 -.100E+01   0.557E-04 -.214E-04 0.558E-04
   -.510E+01 -.261E+01 0.226E+01   0.592E+01 0.189E+01 -.120E+01   -.822E+00 0.720E+00 -.107E+01   0.476E-05 0.648E-05 0.584E-04
   0.127E+02 -.962E+00 -.809E+01   -.112E+02 0.179E+01 0.676E+01   -.149E+01 -.823E+00 0.133E+01   0.197E-04 0.218E-04 -.670E-05
   0.455E+01 0.762E+00 0.212E+01   -.531E+01 0.281E+00 -.100E+01   0.761E+00 -.104E+01 -.112E+01   -.207E-04 0.252E-04 -.666E-04
   -.402E+01 -.489E+01 0.419E+01   0.337E+01 0.592E+01 -.334E+01   0.639E+00 -.104E+01 -.847E+00   0.651E-04 0.120E-04 0.205E-04
   0.337E+01 0.783E+00 0.826E+01   -.255E+01 -.188E+01 -.724E+01   -.806E+00 0.109E+01 -.103E+01   -.757E-04 0.752E-05 0.956E-04
   0.680E+01 -.227E+01 0.687E+01   -.632E+01 0.130E+01 -.567E+01   -.476E+00 0.961E+00 -.120E+01   0.127E-03 0.465E-05 0.119E-04
   -.184E+01 0.131E+01 -.127E+01   0.152E+01 -.114E+01 0.161E+01   0.324E+00 -.170E+00 -.329E+00   0.749E-04 -.107E-03 -.143E-03
   0.123E+01 0.168E+00 0.337E+01   -.970E+00 -.204E+00 -.337E+01   -.260E+00 0.380E-01 0.784E-02   0.385E-05 -.214E-04 0.187E-05
   0.141E+01 0.176E+01 -.140E+01   -.173E+01 -.177E+01 0.160E+01   0.317E+00 0.340E-02 -.198E+00   -.505E-04 0.103E-03 0.135E-03
   0.527E+00 -.412E+01 -.634E+01   -.531E+00 0.384E+01 0.602E+01   0.111E-01 0.278E+00 0.313E+00   -.144E-03 0.558E-04 0.417E-04
   -.552E+02 0.303E+02 -.303E+02   0.594E+02 -.330E+02 0.323E+02   -.422E+01 0.270E+01 -.196E+01   -.266E-03 0.177E-03 -.824E-04
   -.342E+02 -.342E+02 0.568E+02   0.363E+02 0.365E+02 -.609E+02   -.209E+01 -.226E+01 0.405E+01   0.125E-03 0.116E-03 0.565E-04
   0.470E+02 0.388E+02 0.354E+02   -.503E+02 -.420E+02 -.382E+02   0.334E+01 0.313E+01 0.280E+01   -.145E-03 -.794E-04 -.743E-04
   0.165E+02 -.482E+02 -.547E+02   -.186E+02 0.516E+02 0.585E+02   0.210E+01 -.332E+01 -.388E+01   -.208E-04 -.119E-03 -.251E-03
   0.331E+02 -.328E+02 -.504E+02   -.358E+02 0.359E+02 0.537E+02   0.269E+01 -.311E+01 -.334E+01   0.189E-04 -.528E-04 0.209E-04
   0.503E+02 0.432E+02 0.405E+02   -.536E+02 -.460E+02 -.431E+02   0.335E+01 0.288E+01 0.260E+01   -.475E-04 -.921E-04 0.137E-04
   -.476E+02 -.271E+02 0.402E+02   0.511E+02 0.294E+02 -.436E+02   -.358E+01 -.224E+01 0.341E+01   -.158E-03 -.172E-03 0.256E-03
   -.269E+02 0.444E+02 -.426E+02   0.292E+02 -.476E+02 0.460E+02   -.230E+01 0.328E+01 -.347E+01   0.670E-06 -.238E-04 0.691E-04
   -.434E+02 -.589E+02 0.205E+02   0.462E+02 0.630E+02 -.223E+02   -.280E+01 -.403E+01 0.187E+01   0.845E-04 -.848E-04 -.652E-04
   -.428E+02 0.391E+02 -.307E+02   0.462E+02 -.420E+02 0.331E+02   -.338E+01 0.291E+01 -.249E+01   0.296E-04 0.237E-05 0.931E-04
   0.424E+02 -.304E+02 -.455E+02   -.458E+02 0.325E+02 0.491E+02   0.340E+01 -.219E+01 -.362E+01   0.215E-04 0.109E-03 0.100E-03
   0.209E+02 0.508E+02 0.491E+02   -.231E+02 -.544E+02 -.527E+02   0.226E+01 0.360E+01 0.361E+01   0.270E-03 0.264E-03 0.170E-03
   -.330E+02 -.519E+02 0.259E+02   0.357E+02 0.561E+02 -.283E+02   -.278E+01 -.419E+01 0.244E+01   0.766E-04 -.165E-03 -.949E-04
   -.490E+02 0.195E+02 -.503E+02   0.524E+02 -.216E+02 0.539E+02   -.334E+01 0.218E+01 -.356E+01   -.754E-04 -.731E-04 -.168E-03
   0.419E+02 -.393E+02 -.426E+02   -.450E+02 0.419E+02 0.455E+02   0.312E+01 -.256E+01 -.291E+01   0.173E-03 -.972E-04 -.150E-03
   0.396E+02 0.481E+02 0.288E+02   -.425E+02 -.517E+02 -.317E+02   0.292E+01 0.357E+01 0.292E+01   0.153E-03 -.110E-03 -.984E-04
   0.946E+01 0.586E+01 -.102E+02   -.972E+01 -.606E+01 0.103E+02   0.251E+00 0.199E+00 -.116E+00   -.571E-04 0.148E-03 -.598E-04
   -.134E+02 0.113E+01 0.528E+01   0.136E+02 -.123E+01 -.552E+01   -.284E+00 0.106E+00 0.245E+00   -.564E-04 0.684E-04 0.140E-03
   -.238E+00 -.320E+01 -.162E+02   0.195E+00 0.337E+01 0.166E+02   0.446E-01 -.166E+00 -.328E+00   -.316E-04 -.111E-03 -.733E-04
   -.106E+01 -.730E+01 -.430E+01   0.101E+01 0.757E+01 0.449E+01   0.525E-01 -.274E+00 -.187E+00   0.964E-04 -.128E-03 -.617E-05
   0.232E+02 -.218E+02 0.545E+01   -.236E+02 0.222E+02 -.558E+01   0.409E+00 -.326E+00 0.129E+00   -.703E-04 0.436E-04 -.415E-04
   0.393E+01 0.183E+02 0.184E+02   -.399E+01 -.186E+02 -.188E+02   0.611E-01 0.332E+00 0.376E+00   -.213E-03 0.818E-04 -.137E-03
   0.310E+02 0.166E+02 0.150E+02   -.315E+02 -.168E+02 -.152E+02   0.527E+00 0.203E+00 0.211E+00   0.232E-03 0.281E-03 -.350E-04
   -.526E+01 0.132E+01 0.403E+02   0.537E+01 -.134E+01 -.409E+02   -.114E+00 0.209E-01 0.552E+00   -.270E-04 -.610E-04 0.335E-03
 -----------------------------------------------------------------------------------------------
   0.768E+00 -.496E-01 0.297E+01   -.471E-13 -.209E-13 -.711E-14   -.761E+00 0.387E-01 -.297E+01   -.176E-03 -.189E-03 -.122E-03
 
 
 POSITION                                       TOTAL-FORCE (eV/Angst)
 -----------------------------------------------------------------------------------
      9.31935      3.09489      3.30923        -0.000061      0.000025     -0.000141
      9.52751      6.73333      6.92091         0.000110     -0.000050     -0.000063
      0.28176      3.34071      6.87962        -0.000117      0.000029      0.000340
      0.31538      8.14697      2.08371         0.000203      0.000685      0.000135
      1.85966      1.87302      9.63743         0.000046     -0.000066     -0.000022
      2.12172      7.76090      0.17084        -0.000018      0.000029     -0.000069
      8.08841      1.75412      0.45118        -0.000003     -0.000140      0.000028
      7.99443      7.90800      9.29173         0.000345     -0.000238     -0.000016
      3.14632      9.25067      3.35925        -0.000036     -0.000177      0.000622
      1.81129      0.15486      7.62511         0.000135     -0.000075     -0.000096
      7.03641      9.51945      6.90612        -0.000080      0.000040      0.000330
      6.53620      0.24009      2.96118        -0.000221      0.000016     -0.000002
      1.73514      6.41100      4.43460        -0.000134     -0.000175     -0.000134
      2.35376      2.33101      5.12208        -0.000598      0.000634     -0.000047
      7.76007      6.45781      5.03445         0.000018     -0.000237      0.000034
      6.80561      2.18460      4.76055         0.000106     -0.000040      0.000049
      3.25220      4.47039      8.01041         0.000073      0.000020     -0.000006
      2.79700      4.99717      1.89938         0.000084      0.000063     -0.000030
      6.91866      4.70637      2.04962        -0.000061      0.000017     -0.000140
      6.52039      5.25229      8.13405        -0.000064      0.000065     -0.000007
      4.55776      1.82337      6.87900        -0.000098      0.000024     -0.000318
      4.65715      6.84432      1.78423        -0.000011      0.000140     -0.000111
      5.05718      2.81037      1.72649         0.000051     -0.000142     -0.000461
      5.08790      7.71044      6.34452         0.000086     -0.000126     -0.000267
      4.73877      4.83125      4.89448        -0.000126     -0.000039     -0.000180
      4.91224      9.64493      9.63893         0.000234      0.000289      0.000064
      9.64834      4.86848      0.14184         0.000132     -0.000103      0.000260
      9.64066      0.00382      4.83315        -0.000102     -0.000291     -0.000043
      1.26800      8.40070      5.85040        -0.000153      0.000223     -0.000234
      1.13950      1.09004      3.51976        -0.000215     -0.000137      0.000171
      8.33040      8.49428      3.77812         0.000006      0.000057      0.000136
      8.66619      1.32149      6.07641         0.000131     -0.000198      0.000025
      8.58810      6.20075      1.27255         0.000242     -0.000003      0.000106
      8.36860      3.73833      8.65680         0.000070      0.000291      0.000228
      1.31792      5.87596      8.57602        -0.000330     -0.000135      0.000236
      1.03072      3.58778      1.37065         0.000045      0.000166     -0.000082
      6.10222      1.31689      8.61749        -0.000354     -0.000030      0.000110
      6.17739      8.47077      1.09929         0.000033      0.000038     -0.000183
      3.66130      0.96827      1.30084         0.000076     -0.000290     -0.000071
      3.80314      8.51737      8.33133         0.000208      0.000072      0.000236
      5.86741      6.09546      3.72722        -0.000117     -0.000016      0.000078
      5.91239      3.77718      6.21388        -0.000077      0.000179     -0.000202
      3.48300      5.95038      6.05549         0.000323     -0.000323     -0.000312
      3.68109      3.57814      3.66180         0.000109     -0.000038      0.000020
      7.27478      7.25295      7.19356         0.000085     -0.000012      0.000005
      7.21458      2.44824      2.51908        -0.000045     -0.000001      0.000036
      2.45943      7.23091      2.38786         0.000019      0.000012     -0.000055
      2.37253      2.38880      7.40709        -0.000007     -0.000024     -0.000046
      0.23583      9.52367      9.61186         0.000036     -0.000024     -0.000016
      9.61310      4.89225      5.02837         0.000035      0.000005      0.000073
      5.07713      0.21828      5.02366        -0.000005     -0.000012      0.000037
      4.82150      4.83447      0.34219        -0.000009      0.000024     -0.000006
 -----------------------------------------------------------------------------------
    total drift:                                0.007616     -0.011112     -0.002829


--------------------------------------------------------------------------------------------------------



  FREE ENERGIE OF THE ION-ELECTRON SYSTEM (eV)
  ---------------------------------------------------
  free  energy   TOTEN  =      -272.44351230 eV

  energy  without entropy=     -272.44351230  energy(sigma->0) =     -272.44351230
 
 d Force = 0.2994458E-06[ 0.249E-06, 0.349E-06]  d Energy = 0.8621211E-06-0.563E-06
 d Force = 0.1136487E-01[ 0.114E-01, 0.114E-01]  d Ewald  = 0.1136506E-01-0.183E-06


--------------------------------------------------------------------------------------------------------


    POTLOK:  cpu time      0.4616: real time      0.4632


--------------------------------------------------------------------------------------------------------


 stress matrix after NEB project (eV)
      1.16315      1.42733      0.41286
      1.42733     -0.67803      0.59415
      0.41286      0.59415     -0.48241
  FORCES: max atom, RMS     0.000872    0.000307
  FORCE total and by dimension    0.002211    0.000685
  Stress total and by dimension    2.677097    1.427331


--------------------------------------------------------------------------------------------------------


  
 reached required accuracy - stopping structural energy minimisation
     LOOP+:  cpu time      7.8383: real time      7.9119
    4ORBIT:  cpu time      0.0000: real time      0.0000

 total amount of memory used by VASP MPI-rank0    48212. kBytes
=======================================================================

   base      :      30000. kBytes
   nonlr-proj:       6552. kBytes
   fftplans  :       1747. kBytes
   grid      :       5278. kBytes
   one-center:         62. kBytes
   wavefun   :       4573. kBytes
 
  
  
 General timing and accounting informations for this job:
 ========================================================
  
                  Total CPU time used (sec):      107.185
                            User time (sec):      106.033
                          System time (sec):        1.152
                         Elapsed time (sec):      111.461
  
                   Maximum memory used (kb):      385704.
                   Average memory used (kb):          N/A
  
                          Minor page faults:        62915
                          Major page faults:          105
                 Voluntary context switches:         3547
