<?xml version="1.0" encoding="ISO-8859-1"?>
<modeling>
 <generator>
  <i name="program" type="string">vasp </i>
  <i name="version" type="string">6.4.1  </i>
  <i name="subversion" type="string">05Apr23 (build Jun 07 2023 15:38:11) complex                          parallel </i>
  <i name="platform" type="string">LinuxIFC </i>
  <i name="date" type="string">2023 10 24 </i>
  <i name="time" type="string">22:52:23 </i>
 </generator>
 <incar>
  <i type="string" name="PREC">Accu</i>
  <i type="string" name="ALGO">F</i>
  <i type="logical" name="LDIAG"> T  </i>
  <i type="int" name="ISPIN">     2</i>
  <i type="int" name="NELM">   100</i>
  <i type="int" name="NELMDL">   -10</i>
  <i type="int" name="IBRION">     2</i>
  <i name="EDIFF">      0.00000100</i>
  <i name="EDIFFG">     -0.00100000</i>
  <i type="int" name="NSW">  1000</i>
  <i type="int" name="ISIF">     2</i>
  <i name="ENCUT">    520.00000000</i>
  <i name="POTIM">      0.20000000</i>
  <i type="string" name="LREAL">Auto</i>
  <i type="logical" name="LPLANE"> T  </i>
  <i type="int" name="ISMEAR">     0</i>
  <i name="SIGMA">      0.03000000</i>
  <i type="int" name="LMAXMIX">     4</i>
  <i type="logical" name="LWAVE"> F  </i>
  <i type="logical" name="LCHARG"> F  </i>
  <i type="logical" name="LASPH"> T  </i>
  <i type="string" name="GGA">PE</i>
  <i type="int" name="IVDW">    12</i>
 </incar>
 <primitive_cell>
  <structure name="primitive_cell" >
   <crystal>
    <varray name="basis" >
     <v>       9.64947454       0.00000000       0.00000000 </v>
     <v>       0.00000000       9.64947454       0.00000000 </v>
     <v>       0.00000000       0.00000000       9.64947454 </v>
    </varray>
    <i name="volume">    898.48533701 </i>
    <varray name="rec_basis" >
     <v>       0.10363259       0.00000000       0.00000000 </v>
     <v>       0.00000000       0.10363259       0.00000000 </v>
     <v>       0.00000000       0.00000000       0.10363259 </v>
    </varray>
   </crystal>
   <varray name="positions" >
    <v>       0.96578945       0.32073064       0.34294723 </v>
    <v>       0.98735808       0.69779396       0.71723390 </v>
    <v>       0.02920258       0.34620553       0.71294490 </v>
    <v>       0.03267958       0.84427580       0.21593733 </v>
    <v>       0.19271973       0.19410909       0.99875132 </v>
    <v>       0.21988088       0.80428058       0.01770535 </v>
    <v>       0.83822281       0.18178934       0.04675647 </v>
    <v>       0.82847547       0.81953226       0.96292497 </v>
    <v>       0.32606225       0.95867383       0.34811229 </v>
    <v>       0.18770538       0.01604971       0.79021214 </v>
    <v>       0.72920358       0.98652369       0.71569075 </v>
    <v>       0.67736977       0.02488185       0.30687504 </v>
    <v>       0.17982036       0.66439328       0.45957339 </v>
    <v>       0.24394107       0.24155298       0.53081615 </v>
    <v>       0.80419585       0.66924617       0.52173340 </v>
    <v>       0.70528050       0.22639753       0.49334689 </v>
    <v>       0.33702991       0.46327787       0.83013928 </v>
    <v>       0.28985670       0.51786907       0.19683870 </v>
    <v>       0.71700062       0.48773187       0.21241193 </v>
    <v>       0.67572786       0.54430675       0.84295180 </v>
    <v>       0.47233406       0.18895954       0.71289647 </v>
    <v>       0.48263212       0.70928991       0.18490756 </v>
    <v>       0.52408848       0.29124889       0.17893152 </v>
    <v>       0.52726970       0.79905542       0.65750575 </v>
    <v>       0.49108950       0.50067342       0.50722519 </v>
    <v>       0.50907401       0.99953641       0.99891016 </v>
    <v>       0.99988218       0.50452432       0.01469887 </v>
    <v>       0.99908607       0.00039355       0.50086649 </v>
    <v>       0.13140192       0.87058947       0.60629361 </v>
    <v>       0.11809122       0.11296348       0.36476561 </v>
    <v>       0.86330791       0.88028827       0.39153564 </v>
    <v>       0.89809888       0.13695149       0.62970776 </v>
    <v>       0.89000327       0.64259459       0.13186558 </v>
    <v>       0.86726399       0.38741176       0.89712027 </v>
    <v>       0.13657777       0.60894043       0.88875616 </v>
    <v>       0.10681148       0.37181297       0.14204188 </v>
    <v>       0.63239138       0.13646123       0.89305419 </v>
    <v>       0.64017114       0.87784939       0.11392499 </v>
    <v>       0.37943414       0.10035012       0.13480298 </v>
    <v>       0.39412551       0.88267951       0.86339607 </v>
    <v>       0.60805560       0.63168442       0.38626437 </v>
    <v>       0.61271250       0.39143787       0.64396035 </v>
    <v>       0.36095517       0.61665425       0.62754687 </v>
    <v>       0.38147945       0.37081842       0.37948702 </v>
    <v>       0.75390229       0.75164276       0.74548729 </v>
    <v>       0.74766678       0.25371818       0.26105940 </v>
    <v>       0.25487712       0.74935701       0.24745961 </v>
    <v>       0.24587192       0.24755611       0.76761586 </v>
    <v>       0.02444067       0.98695938       0.99610379 </v>
    <v>       0.99622853       0.50700459       0.52110409 </v>
    <v>       0.52615801       0.02262369       0.52061531 </v>
    <v>       0.49966255       0.50100673       0.03546739 </v>
   </varray>
  </structure>
  <varray name="primitive_index" >
   <v type="int" >        1 </v>
   <v type="int" >        2 </v>
   <v type="int" >        3 </v>
   <v type="int" >        4 </v>
   <v type="int" >        5 </v>
   <v type="int" >        6 </v>
   <v type="int" >        7 </v>
   <v type="int" >        8 </v>
   <v type="int" >        9 </v>
   <v type="int" >       10 </v>
   <v type="int" >       11 </v>
   <v type="int" >       12 </v>
   <v type="int" >       13 </v>
   <v type="int" >       14 </v>
   <v type="int" >       15 </v>
   <v type="int" >       16 </v>
   <v type="int" >       17 </v>
   <v type="int" >       18 </v>
   <v type="int" >       19 </v>
   <v type="int" >       20 </v>
   <v type="int" >       21 </v>
   <v type="int" >       22 </v>
   <v type="int" >       23 </v>
   <v type="int" >       24 </v>
   <v type="int" >       25 </v>
   <v type="int" >       26 </v>
   <v type="int" >       27 </v>
   <v type="int" >       28 </v>
   <v type="int" >       29 </v>
   <v type="int" >       30 </v>
   <v type="int" >       31 </v>
   <v type="int" >       32 </v>
   <v type="int" >       33 </v>
   <v type="int" >       34 </v>
   <v type="int" >       35 </v>
   <v type="int" >       36 </v>
   <v type="int" >       37 </v>
   <v type="int" >       38 </v>
   <v type="int" >       39 </v>
   <v type="int" >       40 </v>
   <v type="int" >       41 </v>
   <v type="int" >       42 </v>
   <v type="int" >       43 </v>
   <v type="int" >       44 </v>
   <v type="int" >       45 </v>
   <v type="int" >       46 </v>
   <v type="int" >       47 </v>
   <v type="int" >       48 </v>
   <v type="int" >       49 </v>
   <v type="int" >       50 </v>
   <v type="int" >       51 </v>
   <v type="int" >       52 </v>
  </varray>
 </primitive_cell>
 <kpoints>
  <generation param="Monkhorst-Pack">
   <v type="int" name="divisions">       2        2        2 </v>
   <v name="usershift">      0.00000000       0.00000000       0.00000000 </v>
   <v name="genvec1">      0.50000000       0.00000000       0.00000000 </v>
   <v name="genvec2">      0.00000000       0.50000000       0.00000000 </v>
   <v name="genvec3">      0.00000000       0.00000000       0.50000000 </v>
   <v name="shift">      0.50000000       0.50000000       0.50000000 </v>
  </generation>
  <varray name="kpointlist" >
   <v>       0.25000000       0.25000000       0.25000000 </v>
   <v>      -0.25000000       0.25000000       0.25000000 </v>
   <v>      -0.25000000      -0.25000000       0.25000000 </v>
   <v>       0.25000000      -0.25000000       0.25000000 </v>
  </varray>
  <varray name="weights" >
   <v>       0.25000000 </v>
   <v>       0.25000000 </v>
   <v>       0.25000000 </v>
   <v>       0.25000000 </v>
  </varray>
 </kpoints>
 <parameters>
  <separator name="general" >
   <i type="string" name="SYSTEM">unknown system</i>
   <i type="logical" name="LCOMPAT"> F  </i>
  </separator>
  <separator name="electronic" >
   <i type="string" name="PREC">accu</i>
   <i name="ENMAX">    520.00000000</i>
   <i name="ENAUG">   1041.69900000</i>
   <i name="EDIFF">      0.00000100</i>
   <i type="int" name="IALGO">    68</i>
   <i type="int" name="IWAVPR">    11</i>
   <i type="int" name="NBANDS">   176</i>
   <i type="int" name="NBANDSLOW">    -1</i>
   <i type="int" name="NBANDSHIGH">    -1</i>
   <i name="NELECT">    240.00000000</i>
   <i type="int" name="TURBO">     0</i>
   <i type="int" name="IRESTART">     0</i>
   <i type="int" name="NREBOOT">     0</i>
   <i type="int" name="NMIN">     0</i>
   <i name="EREF">      0.00000000</i>
   <separator name="electronic smearing" >
    <i type="int" name="ISMEAR">     0</i>
    <i name="SIGMA">      0.03000000</i>
    <i name="KSPACING">      0.50000000</i>
    <i type="logical" name="KGAMMA"> T  </i>
    <i type="logical" name="KBLOWUP"> T  </i>
   </separator>
   <separator name="electronic projectors" >
    <i type="logical" name="LREAL"> T  </i>
    <v name="ROPT">     -0.00025000     -0.00025000     -0.00025000     -0.00025000</v>
    <i type="int" name="LMAXPAW">  -100</i>
    <i type="int" name="LMAXMIX">     4</i>
    <i type="logical" name="NLSPLINE"> F  </i>
   </separator>
   <separator name="electronic startup" >
    <i type="int" name="ISTART">     0</i>
    <i type="int" name="ICHARG">     2</i>
    <i type="int" name="INIWAV">     1</i>
   </separator>
   <separator name="electronic spin" >
    <i type="int" name="ISPIN">     2</i>
    <i type="logical" name="LNONCOLLINEAR"> F  </i>
    <v name="MAGMOM">      1.00000000      1.00000000      1.00000000      1.00000000      1.00000000      1.00000000      1.00000000      1.00000000      1.00000000      1.00000000      1.00000000      1.00000000      1.00000000      1.00000000      1.00000000      1.00000000      1.00000000      1.00000000      1.00000000      1.00000000
      1.00000000      1.00000000      1.00000000      1.00000000      1.00000000      1.00000000      1.00000000      1.00000000      1.00000000      1.00000000      1.00000000      1.00000000      1.00000000      1.00000000      1.00000000      1.00000000      1.00000000      1.00000000      1.00000000      1.00000000
      1.00000000      1.00000000      1.00000000      1.00000000      1.00000000      1.00000000      1.00000000      1.00000000      1.00000000      1.00000000      1.00000000      1.00000000</v>
    <i name="NUPDOWN">     -1.00000000</i>
    <i type="logical" name="LSORBIT"> F  </i>
    <v name="SAXIS">      0.00000000      0.00000000      1.00000000</v>
    <i type="logical" name="LSPIRAL"> F  </i>
    <v name="QSPIRAL">      0.00000000      0.00000000      0.00000000</v>
    <i type="logical" name="LZEROZ"> F  </i>
   </separator>
   <separator name="electronic exchange-correlation" >
    <i type="logical" name="LASPH"> T  </i>
    <i type="logical" name="LMETAGGA"> F  </i>
   </separator>
   <separator name="electronic convergence" >
    <i type="int" name="NELM">   100</i>
    <i type="int" name="NELMDL">   -10</i>
    <i type="int" name="NELMIN">     2</i>
    <i name="ENINI">    520.00000000</i>
    <separator name="electronic convergence detail" >
     <i type="logical" name="LDIAG"> T  </i>
     <i type="logical" name="LSUBROT"> F  </i>
     <i name="WEIMIN">      0.00100000</i>
     <i name="EBREAK">      0.00000000</i>
     <i name="DEPER">      0.30000000</i>
     <i type="int" name="NRMM">     4</i>
     <i name="TIME">      0.40000000</i>
    </separator>
   </separator>
   <separator name="electronic mixer" >
    <i name="AMIX">      0.40000000</i>
    <i name="BMIX">      1.00000000</i>
    <i name="AMIN">      0.10000000</i>
    <i name="AMIX_MAG">      1.60000000</i>
    <i name="BMIX_MAG">      1.00000000</i>
    <separator name="electronic mixer details" >
     <i type="int" name="IMIX">     4</i>
     <i type="logical" name="MIXFIRST"> F  </i>
     <i type="int" name="MAXMIX">   -45</i>
     <i name="WC">    100.00000000</i>
     <i type="int" name="INIMIX">     1</i>
     <i type="int" name="MIXPRE">     1</i>
     <i type="int" name="MREMOVE">     5</i>
    </separator>
   </separator>
   <separator name="electronic dipolcorrection" >
    <i type="logical" name="LDIPOL"> F  </i>
    <i type="logical" name="LMONO"> F  </i>
    <i type="int" name="IDIPOL">     0</i>
    <i name="EPSILON">      1.00000000</i>
    <v name="DIPOL">   -100.00000000   -100.00000000   -100.00000000</v>
    <i name="EFIELD">      0.00000000</i>
   </separator>
  </separator>
  <separator name="grids" >
   <i type="int" name="NGX">    72</i>
   <i type="int" name="NGY">    72</i>
   <i type="int" name="NGZ">    72</i>
   <i type="int" name="NGXF">   144</i>
   <i type="int" name="NGYF">   144</i>
   <i type="int" name="NGZF">   144</i>
   <i type="logical" name="ADDGRID"> F  </i>
  </separator>
  <separator name="ionic" >
   <i type="int" name="NSW">  1000</i>
   <i type="int" name="IBRION">     2</i>
   <i type="int" name="MDALGO">     0</i>
   <i type="int" name="ISIF">     2</i>
   <i name="PSTRESS">      0.00000000</i>
   <i name="EDIFFG">     -0.00100000</i>
   <i type="int" name="NFREE">     1</i>
   <i name="POTIM">      0.20000000</i>
   <i name="SMASS">     -3.00000000</i>
   <i name="SCALEE">      1.00000000</i>
  </separator>
  <separator name="ionic md" >
   <i name="TEBEG">      0.00010000</i>
   <i name="TEEND">      0.00010000</i>
   <i type="int" name="NBLOCK">     1</i>
   <i type="int" name="KBLOCK">  1000</i>
   <i type="int" name="NPACO">   256</i>
   <i name="APACO">     10.00000000</i>
  </separator>
  <separator name="symmetry" >
   <i type="int" name="ISYM">     2</i>
   <i name="SYMPREC">      0.00001000</i>
  </separator>
  <separator name="dos" >
   <i type="int" name="LORBIT">     0</i>
   <v name="RWIGS">     -1.00000000     -1.00000000     -1.00000000     -1.00000000</v>
   <i type="int" name="NEDOS">   301</i>
   <i name="EMIN">     10.00000000</i>
   <i name="EMAX">    -10.00000000</i>
   <i name="EFERMI">      0.00000000</i>
  </separator>
  <separator name="writing" >
   <i type="int" name="NWRITE">     2</i>
   <i type="logical" name="LWAVE"> F  </i>
   <i type="logical" name="LDOWNSAMPLE"> F  </i>
   <i type="logical" name="LCHARG"> F  </i>
   <i type="logical" name="LPARD"> F  </i>
   <i type="logical" name="LVTOT"> F  </i>
   <i type="logical" name="LVHAR"> F  </i>
   <i type="logical" name="LELF"> F  </i>
   <i type="logical" name="LOPTICS"> F  </i>
   <v name="STM">      0.00000000      0.00000000      0.00000000      0.00000000      0.00000000      0.00000000      0.00000000</v>
  </separator>
  <separator name="performance" >
   <i type="int" name="NPAR">     4</i>
   <i type="int" name="NSIM">     4</i>
   <i type="int" name="NBLK">    -1</i>
   <i type="logical" name="LPLANE"> T  </i>
   <i type="logical" name="LSCALAPACK"> T  </i>
   <i type="logical" name="LSCAAWARE"> F  </i>
   <i type="logical" name="LSCALU"> F  </i>
   <i type="logical" name="LASYNC"> F  </i>
   <i type="logical" name="LORBITALREAL"> F  </i>
  </separator>
  <separator name="miscellaneous" >
   <i type="int" name="IDIOT">     3</i>
   <i type="int" name="PHON_NSTRUCT">    -1</i>
   <i type="logical" name="LMUSIC"> F  </i>
   <v name="POMASS">      7.01000000     30.97400000     32.06600000     35.45300000</v>
   <v name="DARWINR">      0.00000000      0.00000000      0.00000000      0.00000000</v>
   <v name="DARWINV">      1.00000000      1.00000000      1.00000000      1.00000000</v>
   <i type="logical" name="LCORR"> T  </i>
  </separator>
  <i type="logical" name="GGA_COMPAT"> T  </i>
  <i type="logical" name="LBERRY"> F  </i>
  <i type="int" name="ICORELEVEL">     0</i>
  <i type="logical" name="LDAU"> F  </i>
  <i type="int" name="I_CONSTRAINED_M">     0</i>
  <separator name="electronic exchange-correlation" >
   <i type="string" name="GGA">PE</i>
   <i type="int" name="VOSKOWN">     0</i>
   <i type="logical" name="LHFCALC"> F  </i>
   <i type="string" name="PRECFOCK"></i>
   <i type="logical" name="LSYMGRAD"> F  </i>
   <i type="logical" name="LHFONE"> F  </i>
   <i type="logical" name="LRHFCALC"> F  </i>
   <i type="logical" name="LTHOMAS"> F  </i>
   <i type="logical" name="LMODELHF"> F  </i>
   <i type="logical" name="LFOCKACE"> F  </i>
   <i name="ENCUT4O">     -1.00000000</i>
   <i type="int" name="EXXOEP">     0</i>
   <i type="int" name="FOURORBIT">     0</i>
   <i name="AEXX">      0.00000000</i>
   <i name="HFALPHA">      0.00000000</i>
   <i name="MCALPHA">      0.00000000</i>
   <i name="ALDAX">      1.00000000</i>
   <i name="AGGAX">      1.00000000</i>
   <i name="ALDAC">      1.00000000</i>
   <i name="AGGAC">      1.00000000</i>
   <i type="int" name="NKREDX">     1</i>
   <i type="int" name="NKREDY">     1</i>
   <i type="int" name="NKREDZ">     1</i>
   <i type="logical" name="SHIFTRED"> F  </i>
   <i type="logical" name="ODDONLY"> F  </i>
   <i type="logical" name="EVENONLY"> F  </i>
   <i type="int" name="LMAXFOCK">     0</i>
   <i type="int" name="NMAXFOCKAE">     0</i>
   <i type="logical" name="LFOCKAEDFT"> F  </i>
   <i name="HFSCREEN">      0.00000000</i>
   <i name="HFSCREENC">      0.00000000</i>
   <i type="int" name="NBANDSGWLOW">     0</i>
  </separator>
  <separator name="vdW DFT" >
   <i type="logical" name="LUSE_VDW"> F  </i>
   <i type="int" name="IVDW_NL">     1</i>
   <i type="logical" name="LSPIN_VDW"> F  </i>
   <i name="Zab_VDW">     -0.84910000</i>
   <i name="PARAM1">      0.12340000</i>
   <i name="PARAM2">      1.00000000</i>
   <i name="PARAM3">      0.00000000</i>
  </separator>
  <separator name="model GW" >
   <i type="int" name="MODEL_GW">     0</i>
   <i name="MODEL_EPS0">     10.36713850</i>
   <i name="MODEL_ALPHA">      1.00000000</i>
  </separator>
  <separator name="linear response parameters" >
   <i type="logical" name="LEPSILON"> F  </i>
   <i type="logical" name="LRPA"> F  </i>
   <i type="logical" name="LNABLA"> F  </i>
   <i type="logical" name="LVEL"> F  </i>
   <i name="CSHIFT">      0.10000000</i>
   <i name="OMEGAMAX">     -1.00000000</i>
   <i name="DEG_THRESHOLD">      0.00200000</i>
   <i name="RTIME">     -0.10000000</i>
   <i name="WPLASMAI">      0.00000000</i>
   <v name="DFIELD">      0.00000000      0.00000000      0.00000000</v>
   <v name="WPLASMA">      0.00000000      0.00000000      0.00000000      0.00000000      0.00000000      0.00000000      0.00000000      0.00000000      0.00000000</v>
  </separator>
  <separator name="orbital magnetization" >
   <i type="logical" name="NUCIND"> F  </i>
   <v name="MAGPOS">      0.00000000      0.00000000      0.00000000</v>
   <i type="logical" name="LNICSALL"> T  </i>
   <i type="logical" name="ORBITALMAG"> F  </i>
   <i type="logical" name="LMAGBLOCH"> F  </i>
   <i type="logical" name="LCHIMAG"> F  </i>
   <i type="logical" name="LGAUGE"> T  </i>
   <i type="int" name="MAGATOM">     0</i>
   <v name="MAGDIPOL">      0.00000000      0.00000000      0.00000000</v>
   <v name="AVECCONST">      0.00000000      0.00000000      0.00000000</v>
  </separator>
  <separator name="response functions" >
   <i type="logical" name="LALL_IN_ONE"> F  </i>
   <i type="int" name="IALL_IN_ONE">    -1</i>
   <i type="int" name="NBANDS_WAVE">    -1</i>
   <i type="logical" name="LFINITE_TEMPERATURE"> F  </i>
   <i type="logical" name="LADDER"> F  </i>
   <i type="logical" name="LRPAFORCE"> F  </i>
   <i type="logical" name="LFXC"> F  </i>
   <i type="logical" name="LHARTREE"> T  </i>
   <i type="int" name="IBSE">     0</i>
   <v type="int" name="KPOINT">    -1     0     0     0</v>
   <i type="logical" name="LTCTC"> F  </i>
   <i type="logical" name="LTCTE"> F  </i>
   <i type="logical" name="LTETE"> F  </i>
   <i type="logical" name="LTRIPLET"> F  </i>
   <i type="logical" name="LFXCEPS"> F  </i>
   <i type="logical" name="LFXHEG"> F  </i>
   <i type="int" name="NATURALO">     2</i>
   <i type="logical" name="LHOLEGF"> F  </i>
   <i type="logical" name="L2ORDER"> F  </i>
   <i type="logical" name="LDMP1"> F  </i>
   <i type="logical" name="LMP2LT"> F  </i>
   <i type="logical" name="LSMP2LT"> F  </i>
   <i type="logical" name="LGWLF"> F  </i>
   <i name="ENCUTGW">     -1.60000002</i>
   <i name="ENCUTGWSOFT">     -1.60000002</i>
   <i name="ENCUTLF">     -1.00000000</i>
   <i type="logical" name="LESF_SPLINES"> F  </i>
   <i type="int" name="LMAXMP2">    -1</i>
   <i name="SCISSOR">      0.00000000</i>
   <i type="int" name="NOMEGA">     0</i>
   <i type="int" name="NOMEGAR">     0</i>
   <i type="int" name="NBANDSGW">    -1</i>
   <i type="int" name="NBANDSO">    -1</i>
   <i type="int" name="NBANDSV">    -1</i>
   <i type="int" name="NELMGW">     1</i>
   <i type="int" name="NELMHF">     1</i>
   <i type="int" name="DIM">     3</i>
   <i type="int" name="IESPILON">     4</i>
   <i type="int" name="ANTIRES">     0</i>
   <i name="OMEGAMAX">    -30.00000000</i>
   <i name="OMEGAMIN">    -30.00000000</i>
   <i name="OMEGATL">   -200.00000000</i>
   <i type="int" name="OMEGAGRID">     0</i>
   <i name="CSHIFT">     -0.10000000</i>
   <i type="logical" name="LSELFENERGY"> F  </i>
   <i type="logical" name="LSPECTRAL"> F  </i>
   <i type="logical" name="LSPECTRALGW"> F  </i>
   <i type="logical" name="LSINGLES"> F  </i>
   <i type="logical" name="LFERMIGW"> F  </i>
   <i type="logical" name="ODDONLYGW"> F  </i>
   <i type="logical" name="EVENONLYGW"> F  </i>
   <i type="int" name="NKREDLFX">     1</i>
   <i type="int" name="NKREDLFY">     1</i>
   <i type="int" name="NKREDLFZ">     1</i>
   <i type="int" name="MAXMEM">  2800</i>
   <i type="int" name="TELESCOPE">     0</i>
   <i type="int" name="NTAUPAR">    -1</i>
   <i type="int" name="NOMEGAPAR">    -1</i>
   <i name="DAMP_NEWTON">      0.80000001</i>
   <i name="LAMBDA">      1.00000000</i>
  </separator>
  <separator name="External order field" >
   <i name="OFIELD_KAPPA">      0.00000000</i>
   <v name="OFIELD_K">      0.00000000      0.00000000      0.00000000</v>
   <i name="OFIELD_Q6_NEAR">      0.00000000</i>
   <i name="OFIELD_Q6_FAR">      0.00000000</i>
   <i name="OFIELD_A">      0.00000000</i>
  </separator>
  <separator name="optional k-points parameters" >
   <i type="int" name="KPOINTS_OPT_MODE">     1</i>
   <i type="logical" name="LKPOINTS_OPT"> F  </i>
  </separator>
 </parameters>
 <atominfo>
  <atoms>      52 </atoms>
  <types>       4 </types>
  <array name="atoms" >
   <dimension dim="1">ion</dimension>
   <field type="string">element</field>
   <field type="int">atomtype</field>
   <set>
    <rc><c>Li</c><c>   1</c></rc>
    <rc><c>Li</c><c>   1</c></rc>
    <rc><c>Li</c><c>   1</c></rc>
    <rc><c>Li</c><c>   1</c></rc>
    <rc><c>Li</c><c>   1</c></rc>
    <rc><c>Li</c><c>   1</c></rc>
    <rc><c>Li</c><c>   1</c></rc>
    <rc><c>Li</c><c>   1</c></rc>
    <rc><c>Li</c><c>   1</c></rc>
    <rc><c>Li</c><c>   1</c></rc>
    <rc><c>Li</c><c>   1</c></rc>
    <rc><c>Li</c><c>   1</c></rc>
    <rc><c>Li</c><c>   1</c></rc>
    <rc><c>Li</c><c>   1</c></rc>
    <rc><c>Li</c><c>   1</c></rc>
    <rc><c>Li</c><c>   1</c></rc>
    <rc><c>Li</c><c>   1</c></rc>
    <rc><c>Li</c><c>   1</c></rc>
    <rc><c>Li</c><c>   1</c></rc>
    <rc><c>Li</c><c>   1</c></rc>
    <rc><c>Li</c><c>   1</c></rc>
    <rc><c>Li</c><c>   1</c></rc>
    <rc><c>Li</c><c>   1</c></rc>
    <rc><c>Li</c><c>   1</c></rc>
    <rc><c>P </c><c>   2</c></rc>
    <rc><c>P </c><c>   2</c></rc>
    <rc><c>P </c><c>   2</c></rc>
    <rc><c>P </c><c>   2</c></rc>
    <rc><c>S </c><c>   3</c></rc>
    <rc><c>S </c><c>   3</c></rc>
    <rc><c>S </c><c>   3</c></rc>
    <rc><c>S </c><c>   3</c></rc>
    <rc><c>S </c><c>   3</c></rc>
    <rc><c>S </c><c>   3</c></rc>
    <rc><c>S </c><c>   3</c></rc>
    <rc><c>S </c><c>   3</c></rc>
    <rc><c>S </c><c>   3</c></rc>
    <rc><c>S </c><c>   3</c></rc>
    <rc><c>S </c><c>   3</c></rc>
    <rc><c>S </c><c>   3</c></rc>
    <rc><c>S </c><c>   3</c></rc>
    <rc><c>S </c><c>   3</c></rc>
    <rc><c>S </c><c>   3</c></rc>
    <rc><c>S </c><c>   3</c></rc>
    <rc><c>S </c><c>   3</c></rc>
    <rc><c>S </c><c>   3</c></rc>
    <rc><c>S </c><c>   3</c></rc>
    <rc><c>S </c><c>   3</c></rc>
    <rc><c>Cl</c><c>   4</c></rc>
    <rc><c>Cl</c><c>   4</c></rc>
    <rc><c>Cl</c><c>   4</c></rc>
    <rc><c>Cl</c><c>   4</c></rc>
   </set>
  </array>
  <array name="atomtypes" >
   <dimension dim="1">type</dimension>
   <field type="int">atomspertype</field>
   <field type="string">element</field>
   <field>mass</field>
   <field>valence</field>
   <field type="string">pseudopotential</field>
   <set>
    <rc><c>  24</c><c>Li</c><c>      7.01000000</c><c>      3.00000000</c><c>  PAW_PBE Li_sv_GW 25Mar2010            </c></rc>
    <rc><c>   4</c><c>P </c><c>     30.97400000</c><c>      5.00000000</c><c>  PAW_PBE P_GW 19Mar2012                </c></rc>
    <rc><c>  20</c><c>S </c><c>     32.06600000</c><c>      6.00000000</c><c>  PAW_PBE S_GW 19Mar2012                </c></rc>
    <rc><c>   4</c><c>Cl</c><c>     35.45300000</c><c>      7.00000000</c><c>  PAW_PBE Cl_GW 19Mar2012               </c></rc>
   </set>
  </array>
 </atominfo>
 <structure name="initialpos" >
  <crystal>
   <varray name="basis" >
    <v>       9.64947454       0.00000000       0.00000000 </v>
    <v>       0.00000000       9.64947454       0.00000000 </v>
    <v>       0.00000000       0.00000000       9.64947454 </v>
   </varray>
   <i name="volume">    898.48533701 </i>
   <varray name="rec_basis" >
    <v>       0.10363259       0.00000000       0.00000000 </v>
    <v>       0.00000000       0.10363259       0.00000000 </v>
    <v>       0.00000000       0.00000000       0.10363259 </v>
   </varray>
  </crystal>
  <varray name="positions" >
   <v>       0.96578945       0.32073064       0.34294723 </v>
   <v>       0.98735808       0.69779396       0.71723390 </v>
   <v>       0.02920258       0.34620553       0.71294490 </v>
   <v>       0.03267958       0.84427580       0.21593733 </v>
   <v>       0.19271973       0.19410909       0.99875132 </v>
   <v>       0.21988088       0.80428058       0.01770535 </v>
   <v>       0.83822281       0.18178934       0.04675647 </v>
   <v>       0.82847547       0.81953226       0.96292497 </v>
   <v>       0.32606225       0.95867383       0.34811229 </v>
   <v>       0.18770538       0.01604971       0.79021214 </v>
   <v>       0.72920358       0.98652369       0.71569075 </v>
   <v>       0.67736977       0.02488185       0.30687504 </v>
   <v>       0.17982036       0.66439328       0.45957339 </v>
   <v>       0.24394107       0.24155298       0.53081615 </v>
   <v>       0.80419585       0.66924617       0.52173340 </v>
   <v>       0.70528050       0.22639753       0.49334689 </v>
   <v>       0.33702991       0.46327787       0.83013928 </v>
   <v>       0.28985670       0.51786907       0.19683870 </v>
   <v>       0.71700062       0.48773187       0.21241193 </v>
   <v>       0.67572786       0.54430675       0.84295180 </v>
   <v>       0.47233406       0.18895954       0.71289647 </v>
   <v>       0.48263212       0.70928991       0.18490756 </v>
   <v>       0.52408848       0.29124889       0.17893152 </v>
   <v>       0.52726970       0.79905542       0.65750575 </v>
   <v>       0.49108950       0.50067342       0.50722519 </v>
   <v>       0.50907401       0.99953641       0.99891016 </v>
   <v>       0.99988218       0.50452432       0.01469887 </v>
   <v>       0.99908607       0.00039355       0.50086649 </v>
   <v>       0.13140192       0.87058947       0.60629361 </v>
   <v>       0.11809122       0.11296348       0.36476561 </v>
   <v>       0.86330791       0.88028827       0.39153564 </v>
   <v>       0.89809888       0.13695149       0.62970776 </v>
   <v>       0.89000327       0.64259459       0.13186558 </v>
   <v>       0.86726399       0.38741176       0.89712027 </v>
   <v>       0.13657777       0.60894043       0.88875616 </v>
   <v>       0.10681148       0.37181297       0.14204188 </v>
   <v>       0.63239138       0.13646123       0.89305419 </v>
   <v>       0.64017114       0.87784939       0.11392499 </v>
   <v>       0.37943414       0.10035012       0.13480298 </v>
   <v>       0.39412551       0.88267951       0.86339607 </v>
   <v>       0.60805560       0.63168442       0.38626437 </v>
   <v>       0.61271250       0.39143787       0.64396035 </v>
   <v>       0.36095517       0.61665425       0.62754687 </v>
   <v>       0.38147945       0.37081842       0.37948702 </v>
   <v>       0.75390229       0.75164276       0.74548729 </v>
   <v>       0.74766678       0.25371818       0.26105940 </v>
   <v>       0.25487712       0.74935701       0.24745961 </v>
   <v>       0.24587192       0.24755611       0.76761586 </v>
   <v>       0.02444067       0.98695938       0.99610379 </v>
   <v>       0.99622853       0.50700459       0.52110409 </v>
   <v>       0.52615801       0.02262369       0.52061531 </v>
   <v>       0.49966255       0.50100673       0.03546739 </v>
  </varray>
 </structure>
 <calculation>
  <scstep>
   <time name="dav">    2.50    2.78</time>
   <time name="total">    2.97    3.29</time>
   <energy>
    <i name="alphaZ">    302.12791739 </i>
    <i name="ewald">  -8852.89368214 </i>
    <i name="hartreedc">  -2087.08711246 </i>
    <i name="XCdc">    534.36911912 </i>
    <i name="pawpsdc">   8141.38806575 </i>
    <i name="pawaedc">  -8271.61346273 </i>
    <i name="eentropy">     -0.00885273 </i>
    <i name="bandstr">   -877.19340474 </i>
    <i name="atom">  12703.13999606 </i>
    <i name="e_fr_energy">   1592.22858352 </i>
    <i name="e_wo_entrp">   1592.23743625 </i>
    <i name="e_0_energy">   1592.23300989 </i>
   </energy>
  </scstep>
  <scstep>
   <time name="dav">    2.74    2.77</time>
   <time name="total">    2.74    2.77</time>
   <energy>
    <i name="e_fr_energy">    -56.65887882 </i>
    <i name="e_wo_entrp">    -56.65887882 </i>
    <i name="e_0_energy">    -56.65887882 </i>
   </energy>
  </scstep>
  <scstep>
   <time name="dav">    2.66    2.68</time>
   <time name="total">    2.66    2.68</time>
   <energy>
    <i name="e_fr_energy">   -228.25998849 </i>
    <i name="e_wo_entrp">   -228.25998849 </i>
    <i name="e_0_energy">   -228.25998849 </i>
   </energy>
  </scstep>
  <scstep>
   <time name="dav">    3.22    3.25</time>
   <time name="total">    3.22    3.25</time>
   <energy>
    <i name="e_fr_energy">   -241.62512428 </i>
    <i name="e_wo_entrp">   -241.62512428 </i>
    <i name="e_0_energy">   -241.62512428 </i>
   </energy>
  </scstep>
  <scstep>
   <time name="dav">    3.01    3.04</time>
   <time name="total">    3.01    3.04</time>
   <energy>
    <i name="e_fr_energy">   -241.86095868 </i>
    <i name="e_wo_entrp">   -241.86095868 </i>
    <i name="e_0_energy">   -241.86095868 </i>
   </energy>
  </scstep>
  <scstep>
   <time name="dav">    3.32    3.37</time>
   <time name="total">    3.32    3.37</time>
   <energy>
    <i name="e_fr_energy">   -241.87156045 </i>
    <i name="e_wo_entrp">   -241.87156045 </i>
    <i name="e_0_energy">   -241.87156045 </i>
   </energy>
  </scstep>
  <scstep>
   <time name="dav">    3.07    3.11</time>
   <time name="total">    3.07    3.11</time>
   <energy>
    <i name="e_fr_energy">   -241.87198532 </i>
    <i name="e_wo_entrp">   -241.87198532 </i>
    <i name="e_0_energy">   -241.87198532 </i>
   </energy>
  </scstep>
  <scstep>
   <time name="dav">    3.06    3.09</time>
   <time name="total">    3.06    3.09</time>
   <energy>
    <i name="e_fr_energy">   -241.87201158 </i>
    <i name="e_wo_entrp">   -241.87201158 </i>
    <i name="e_0_energy">   -241.87201158 </i>
   </energy>
  </scstep>
  <scstep>
   <time name="dav">    3.12    3.16</time>
   <time name="total">    3.12    3.16</time>
   <energy>
    <i name="e_fr_energy">   -241.87201336 </i>
    <i name="e_wo_entrp">   -241.87201336 </i>
    <i name="e_0_energy">   -241.87201336 </i>
   </energy>
  </scstep>
  <scstep>
   <time name="dav">    2.02    2.04</time>
   <time name="total">    2.09    2.11</time>
   <energy>
    <i name="e_fr_energy">   -241.87201345 </i>
    <i name="e_wo_entrp">   -241.87201345 </i>
    <i name="e_0_energy">   -241.87201345 </i>
   </energy>
  </scstep>
  <scstep>
   <time name="diag">    0.37    0.37</time>
   <time name="diis">    1.19    1.20</time>
   <time name="orth">    0.07    0.07</time>
   <time name="total">    2.15    2.17</time>
   <energy>
    <i name="e_fr_energy">   -236.50219152 </i>
    <i name="e_wo_entrp">   -236.50219152 </i>
    <i name="e_0_energy">   -236.50219152 </i>
   </energy>
  </scstep>
  <scstep>
   <time name="diag">    0.36    0.37</time>
   <time name="diis">    1.23    1.25</time>
   <time name="orth">    0.07    0.07</time>
   <time name="total">    2.19    2.20</time>
   <energy>
    <i name="e_fr_energy">   -256.11678486 </i>
    <i name="e_wo_entrp">   -256.11678486 </i>
    <i name="e_0_energy">   -256.11678486 </i>
   </energy>
  </scstep>
  <scstep>
   <time name="diag">    0.36    0.36</time>
   <time name="diis">    1.22    1.23</time>
   <time name="orth">    0.07    0.07</time>
   <time name="total">    2.16    2.18</time>
   <energy>
    <i name="e_fr_energy">   -258.62058760 </i>
    <i name="e_wo_entrp">   -258.62058760 </i>
    <i name="e_0_energy">   -258.62058760 </i>
   </energy>
  </scstep>
  <scstep>
   <time name="diag">    0.36    0.37</time>
   <time name="diis">    1.56    1.58</time>
   <time name="orth">    0.07    0.07</time>
   <time name="total">    2.52    2.54</time>
   <energy>
    <i name="e_fr_energy">   -258.80812210 </i>
    <i name="e_wo_entrp">   -258.80812210 </i>
    <i name="e_0_energy">   -258.80812210 </i>
   </energy>
  </scstep>
  <scstep>
   <time name="diag">    0.36    0.36</time>
   <time name="diis">    1.29    1.31</time>
   <time name="orth">    0.07    0.07</time>
   <time name="total">    2.24    2.26</time>
   <energy>
    <i name="e_fr_energy">   -258.78528015 </i>
    <i name="e_wo_entrp">   -258.78528015 </i>
    <i name="e_0_energy">   -258.78528015 </i>
   </energy>
  </scstep>
  <scstep>
   <time name="diag">    0.36    0.36</time>
   <time name="diis">    1.30    1.32</time>
   <time name="orth">    0.07    0.07</time>
   <time name="total">    2.25    2.27</time>
   <energy>
    <i name="e_fr_energy">   -258.80497651 </i>
    <i name="e_wo_entrp">   -258.80497651 </i>
    <i name="e_0_energy">   -258.80497651 </i>
   </energy>
  </scstep>
  <scstep>
   <time name="diag">    0.36    0.36</time>
   <time name="diis">    1.46    1.47</time>
   <time name="orth">    0.07    0.07</time>
   <time name="total">    2.41    2.42</time>
   <energy>
    <i name="e_fr_energy">   -258.81075847 </i>
    <i name="e_wo_entrp">   -258.81075847 </i>
    <i name="e_0_energy">   -258.81075847 </i>
   </energy>
  </scstep>
  <scstep>
   <time name="diag">    0.36    0.36</time>
   <time name="diis">    1.40    1.41</time>
   <time name="orth">    0.07    0.07</time>
   <time name="total">    2.35    2.37</time>
   <energy>
    <i name="e_fr_energy">   -258.81193744 </i>
    <i name="e_wo_entrp">   -258.81193744 </i>
    <i name="e_0_energy">   -258.81193744 </i>
   </energy>
  </scstep>
  <scstep>
   <time name="diag">    0.36    0.36</time>
   <time name="diis">    1.65    1.66</time>
   <time name="orth">    0.07    0.07</time>
   <time name="total">    2.60    2.62</time>
   <energy>
    <i name="e_fr_energy">   -258.81236889 </i>
    <i name="e_wo_entrp">   -258.81236889 </i>
    <i name="e_0_energy">   -258.81236889 </i>
   </energy>
  </scstep>
  <scstep>
   <time name="diag">    0.36    0.36</time>
   <time name="diis">    1.62    1.64</time>
   <time name="orth">    0.07    0.07</time>
   <time name="total">    2.57    2.59</time>
   <energy>
    <i name="e_fr_energy">   -258.81244989 </i>
    <i name="e_wo_entrp">   -258.81244989 </i>
    <i name="e_0_energy">   -258.81244989 </i>
   </energy>
  </scstep>
  <scstep>
   <time name="diag">    0.36    0.36</time>
   <time name="diis">    1.43    1.45</time>
   <time name="orth">    0.07    0.07</time>
   <time name="total">    2.39    2.40</time>
   <energy>
    <i name="e_fr_energy">   -258.81246564 </i>
    <i name="e_wo_entrp">   -258.81246564 </i>
    <i name="e_0_energy">   -258.81246564 </i>
   </energy>
  </scstep>
  <scstep>
   <time name="diag">    0.36    0.36</time>
   <time name="diis">    1.60    1.62</time>
   <time name="orth">    0.07    0.07</time>
   <time name="total">    2.55    2.57</time>
   <energy>
    <i name="e_fr_energy">   -258.81247124 </i>
    <i name="e_wo_entrp">   -258.81247124 </i>
    <i name="e_0_energy">   -258.81247124 </i>
   </energy>
  </scstep>
  <scstep>
   <time name="diag">    0.36    0.36</time>
   <time name="diis">    1.27    1.28</time>
   <time name="orth">    0.07    0.07</time>
   <time name="total">    2.22    2.24</time>
   <energy>
    <i name="e_fr_energy">   -258.81247101 </i>
    <i name="e_wo_entrp">   -258.81247101 </i>
    <i name="e_0_energy">   -258.81247101 </i>
   </energy>
  </scstep>
  <scstep>
   <time name="diag">    0.36    0.36</time>
   <time name="diis">    0.96    0.96</time>
   <time name="orth">    0.07    0.07</time>
   <time name="total">    1.84    1.85</time>
   <energy>
    <i name="alphaZ">    302.12791739 </i>
    <i name="ewald">  -8852.89368214 </i>
    <i name="hartreedc">  -2183.19075283 </i>
    <i name="XCdc">    537.91866470 </i>
    <i name="pawpsdc">   9818.08277968 </i>
    <i name="pawaedc">  -9962.09133060 </i>
    <i name="eentropy">     -0.00000000 </i>
    <i name="bandstr">  -2621.90606251 </i>
    <i name="atom">  12703.13999606 </i>
    <i name="e_fr_energy">   -258.81247025 </i>
    <i name="e_wo_entrp">   -258.81247025 </i>
    <i name="e_0_energy">   -258.81247025 </i>
   </energy>
  </scstep>
  <structure>
   <crystal>
    <varray name="basis" >
     <v>       9.64947454       0.00000000       0.00000000 </v>
     <v>       0.00000000       9.64947454       0.00000000 </v>
     <v>       0.00000000       0.00000000       9.64947454 </v>
    </varray>
    <i name="volume">    898.48533701 </i>
    <varray name="rec_basis" >
     <v>       0.10363259       0.00000000       0.00000000 </v>
     <v>       0.00000000       0.10363259       0.00000000 </v>
     <v>       0.00000000       0.00000000       0.10363259 </v>
    </varray>
   </crystal>
   <varray name="positions" >
    <v>       0.96578945       0.32073064       0.34294723 </v>
    <v>       0.98735808       0.69779396       0.71723390 </v>
    <v>       0.02920258       0.34620553       0.71294490 </v>
    <v>       0.03267958       0.84427580       0.21593733 </v>
    <v>       0.19271973       0.19410909       0.99875132 </v>
    <v>       0.21988088       0.80428058       0.01770535 </v>
    <v>       0.83822281       0.18178934       0.04675647 </v>
    <v>       0.82847547       0.81953226       0.96292497 </v>
    <v>       0.32606225       0.95867383       0.34811229 </v>
    <v>       0.18770538       0.01604971       0.79021214 </v>
    <v>       0.72920358       0.98652369       0.71569075 </v>
    <v>       0.67736977       0.02488185       0.30687504 </v>
    <v>       0.17982036       0.66439328       0.45957339 </v>
    <v>       0.24394107       0.24155298       0.53081615 </v>
    <v>       0.80419585       0.66924617       0.52173340 </v>
    <v>       0.70528050       0.22639753       0.49334689 </v>
    <v>       0.33702991       0.46327787       0.83013928 </v>
    <v>       0.28985670       0.51786907       0.19683870 </v>
    <v>       0.71700062       0.48773187       0.21241193 </v>
    <v>       0.67572786       0.54430675       0.84295180 </v>
    <v>       0.47233406       0.18895954       0.71289647 </v>
    <v>       0.48263212       0.70928991       0.18490756 </v>
    <v>       0.52408848       0.29124889       0.17893152 </v>
    <v>       0.52726970       0.79905542       0.65750575 </v>
    <v>       0.49108950       0.50067342       0.50722519 </v>
    <v>       0.50907401       0.99953641       0.99891016 </v>
    <v>       0.99988218       0.50452432       0.01469887 </v>
    <v>       0.99908607       0.00039355       0.50086649 </v>
    <v>       0.13140192       0.87058947       0.60629361 </v>
    <v>       0.11809122       0.11296348       0.36476561 </v>
    <v>       0.86330791       0.88028827       0.39153564 </v>
    <v>       0.89809888       0.13695149       0.62970776 </v>
    <v>       0.89000327       0.64259459       0.13186558 </v>
    <v>       0.86726399       0.38741176       0.89712027 </v>
    <v>       0.13657777       0.60894043       0.88875616 </v>
    <v>       0.10681148       0.37181297       0.14204188 </v>
    <v>       0.63239138       0.13646123       0.89305419 </v>
    <v>       0.64017114       0.87784939       0.11392499 </v>
    <v>       0.37943414       0.10035012       0.13480298 </v>
    <v>       0.39412551       0.88267951       0.86339607 </v>
    <v>       0.60805560       0.63168442       0.38626437 </v>
    <v>       0.61271250       0.39143787       0.64396035 </v>
    <v>       0.36095517       0.61665425       0.62754687 </v>
    <v>       0.38147945       0.37081842       0.37948702 </v>
    <v>       0.75390229       0.75164276       0.74548729 </v>
    <v>       0.74766678       0.25371818       0.26105940 </v>
    <v>       0.25487712       0.74935701       0.24745961 </v>
    <v>       0.24587192       0.24755611       0.76761586 </v>
    <v>       0.02444067       0.98695938       0.99610379 </v>
    <v>       0.99622853       0.50700459       0.52110409 </v>
    <v>       0.52615801       0.02262369       0.52061531 </v>
    <v>       0.49966255       0.50100673       0.03546739 </v>
   </varray>
  </structure>
  <varray name="forces" >
   <v>      -0.00011226       0.00012229      -0.00026763 </v>
   <v>       0.00027247      -0.00019461      -0.00020964 </v>
   <v>      -0.00025223       0.00008386       0.00073281 </v>
   <v>       0.00040707       0.00152062       0.00030030 </v>
   <v>       0.00015121      -0.00030561       0.00002541 </v>
   <v>      -0.00010680       0.00009341      -0.00017341 </v>
   <v>       0.00004836      -0.00053809      -0.00000480 </v>
   <v>       0.00084807      -0.00056700       0.00004951 </v>
   <v>      -0.00007784      -0.00029875       0.00148066 </v>
   <v>       0.00037426      -0.00017729      -0.00022449 </v>
   <v>      -0.00023339       0.00012261       0.00082515 </v>
   <v>      -0.00061330      -0.00001904       0.00005674 </v>
   <v>      -0.00030605      -0.00037306      -0.00029055 </v>
   <v>      -0.00144700       0.00145585      -0.00012856 </v>
   <v>       0.00003752      -0.00061730       0.00004473 </v>
   <v>       0.00033255      -0.00020421       0.00022203 </v>
   <v>       0.00032197       0.00008272       0.00003910 </v>
   <v>       0.00043364       0.00013243      -0.00010578 </v>
   <v>      -0.00020178       0.00016539      -0.00044864 </v>
   <v>      -0.00024494       0.00016354       0.00005628 </v>
   <v>      -0.00020139       0.00007532      -0.00074619 </v>
   <v>       0.00004016       0.00044745      -0.00033870 </v>
   <v>       0.00007260      -0.00028311      -0.00101148 </v>
   <v>       0.00021543      -0.00025807      -0.00058524 </v>
   <v>       0.00022069       0.00072109       0.00115756 </v>
   <v>      -0.00181995      -0.00184881      -0.00104430 </v>
   <v>       0.00017225       0.00175228      -0.00075249 </v>
   <v>       0.00051116       0.00083125       0.00151861 </v>
   <v>       0.00033437      -0.00029992      -0.00031693 </v>
   <v>      -0.00012804       0.00013552      -0.00055053 </v>
   <v>      -0.00143177      -0.00095921      -0.00048151 </v>
   <v>       0.00026880      -0.00041423       0.00034090 </v>
   <v>       0.00029401       0.00057833       0.00128749 </v>
   <v>      -0.00055458      -0.00005312       0.00055549 </v>
   <v>      -0.00012659      -0.00031371       0.00021466 </v>
   <v>       0.00077152      -0.00078539       0.00067870 </v>
   <v>       0.00034833       0.00178070      -0.00049219 </v>
   <v>       0.00114307      -0.00036304       0.00002781 </v>
   <v>      -0.00059602      -0.00043482       0.00100217 </v>
   <v>       0.00100288       0.00035532       0.00079543 </v>
   <v>       0.00008728       0.00053822      -0.00036860 </v>
   <v>       0.00033141       0.00021220      -0.00004498 </v>
   <v>      -0.00003470      -0.00031775      -0.00032549 </v>
   <v>      -0.00021512      -0.00110969      -0.00105964 </v>
   <v>       0.00013615      -0.00007321       0.00004157 </v>
   <v>       0.00000789      -0.00005000      -0.00016536 </v>
   <v>       0.00005268       0.00014090       0.00016584 </v>
   <v>      -0.00003967       0.00017986       0.00008128 </v>
   <v>      -0.00046503       0.00071973      -0.00017786 </v>
   <v>       0.00010321      -0.00120166      -0.00027158 </v>
   <v>      -0.00046300      -0.00053989      -0.00015918 </v>
   <v>       0.00033047       0.00018968      -0.00095450 </v>
  </varray>
  <varray name="stress" >
   <v>       2.09820599       2.54693441       0.73774437 </v>
   <v>       2.54693443      -1.18419696       1.05748977 </v>
   <v>       0.73774489       1.05748966      -0.83639899 </v>
  </varray>
  <energy>
   <i name="e_fr_energy">   -272.44350899 </i>
   <i name="e_wo_entrp">   -272.44350899 </i>
   <i name="e_0_energy">   -272.44350899 </i>
  </energy>
  <time name="totalsc">   64.78   65.71</time>
 </calculation>
 <calculation>
  <scstep>
   <time name="dav">    2.29    2.32</time>
   <time name="total">    2.82    2.84</time>
   <energy>
    <i name="alphaZ">    302.12791739 </i>
    <i name="ewald">  -8852.91011885 </i>
    <i name="hartreedc">  -2183.18116803 </i>
    <i name="XCdc">    537.91837490 </i>
    <i name="pawpsdc">   9818.07612198 </i>
    <i name="pawaedc">  -9962.08463113 </i>
    <i name="eentropy">     -0.00000000 </i>
    <i name="bandstr">  -2621.89896263 </i>
    <i name="atom">  12703.13999606 </i>
    <i name="e_fr_energy">   -258.81247030 </i>
    <i name="e_wo_entrp">   -258.81247030 </i>
    <i name="e_0_energy">   -258.81247030 </i>
   </energy>
  </scstep>
  <scstep>
   <time name="diag">    0.37    0.37</time>
   <time name="diis">    0.87    0.88</time>
   <time name="orth">    0.07    0.07</time>
   <time name="total">    1.76    1.78</time>
   <energy>
    <i name="alphaZ">    302.12791739 </i>
    <i name="ewald">  -8852.91011885 </i>
    <i name="hartreedc">  -2183.18249121 </i>
    <i name="XCdc">    537.91819545 </i>
    <i name="pawpsdc">   9818.04259831 </i>
    <i name="pawaedc">  -9962.05066903 </i>
    <i name="eentropy">     -0.00000000 </i>
    <i name="bandstr">  -2621.89789862 </i>
    <i name="atom">  12703.13999606 </i>
    <i name="e_fr_energy">   -258.81247050 </i>
    <i name="e_wo_entrp">   -258.81247050 </i>
    <i name="e_0_energy">   -258.81247050 </i>
   </energy>
  </scstep>
  <structure>
   <crystal>
    <varray name="basis" >
     <v>       9.64947454       0.00000000       0.00000000 </v>
     <v>       0.00000000       9.64947454       0.00000000 </v>
     <v>       0.00000000       0.00000000       9.64947454 </v>
    </varray>
    <i name="volume">    898.48533701 </i>
    <varray name="rec_basis" >
     <v>       0.10363259       0.00000000       0.00000000 </v>
     <v>       0.00000000       0.10363259       0.00000000 </v>
     <v>       0.00000000       0.00000000       0.10363259 </v>
    </varray>
   </crystal>
   <varray name="positions" >
    <v>       0.96578923       0.32073089       0.34294669 </v>
    <v>       0.98735862       0.69779358       0.71723349 </v>
    <v>       0.02920207       0.34620570       0.71294637 </v>
    <v>       0.03268039       0.84427884       0.21593793 </v>
    <v>       0.19272003       0.19410847       0.99875138 </v>
    <v>       0.21988067       0.80428077       0.01770501 </v>
    <v>       0.83822291       0.18178826       0.04675646 </v>
    <v>       0.82847717       0.81953113       0.96292506 </v>
    <v>       0.32606210       0.95867323       0.34811525 </v>
    <v>       0.18770613       0.01604936       0.79021169 </v>
    <v>       0.72920311       0.98652394       0.71569240 </v>
    <v>       0.67736854       0.02488181       0.30687516 </v>
    <v>       0.17981975       0.66439254       0.45957281 </v>
    <v>       0.24393818       0.24155589       0.53081590 </v>
    <v>       0.80419592       0.66924493       0.52173348 </v>
    <v>       0.70528117       0.22639712       0.49334734 </v>
    <v>       0.33703056       0.46327803       0.83013936 </v>
    <v>       0.28985756       0.51786933       0.19683849 </v>
    <v>       0.71700022       0.48773220       0.21241104 </v>
    <v>       0.67572737       0.54430708       0.84295192 </v>
    <v>       0.47233366       0.18895969       0.71289498 </v>
    <v>       0.48263220       0.70929081       0.18490688 </v>
    <v>       0.52408862       0.29124832       0.17892950 </v>
    <v>       0.52727013       0.79905490       0.65750458 </v>
    <v>       0.49108994       0.50067486       0.50722751 </v>
    <v>       0.50907037       0.99953271       0.99890807 </v>
    <v>       0.99988252       0.50452782       0.01469737 </v>
    <v>       0.99908709       0.00039521       0.50086953 </v>
    <v>       0.13140259       0.87058888       0.60629298 </v>
    <v>       0.11809096       0.11296375       0.36476451 </v>
    <v>       0.86330505       0.88028636       0.39153467 </v>
    <v>       0.89809941       0.13695066       0.62970844 </v>
    <v>       0.89000385       0.64259575       0.13186815 </v>
    <v>       0.86726288       0.38741165       0.89712138 </v>
    <v>       0.13657752       0.60893980       0.88875659 </v>
    <v>       0.10681302       0.37181140       0.14204324 </v>
    <v>       0.63239208       0.13646479       0.89305320 </v>
    <v>       0.64017342       0.87784866       0.11392504 </v>
    <v>       0.37943294       0.10034925       0.13480498 </v>
    <v>       0.39412752       0.88268022       0.86339766 </v>
    <v>       0.60805577       0.63168550       0.38626363 </v>
    <v>       0.61271316       0.39143830       0.64396026 </v>
    <v>       0.36095510       0.61665362       0.62754622 </v>
    <v>       0.38147901       0.37081620       0.37948490 </v>
    <v>       0.75390256       0.75164262       0.74548737 </v>
    <v>       0.74766679       0.25371808       0.26105907 </v>
    <v>       0.25487723       0.74935729       0.24745994 </v>
    <v>       0.24587184       0.24755647       0.76761603 </v>
    <v>       0.02443974       0.98696082       0.99610343 </v>
    <v>       0.99622874       0.50700219       0.52110354 </v>
    <v>       0.52615708       0.02262261       0.52061499 </v>
    <v>       0.49966321       0.50100711       0.03546548 </v>
   </varray>
  </structure>
  <varray name="forces" >
   <v>      -0.00007233       0.00006051      -0.00026220 </v>
   <v>       0.00007341      -0.00012120      -0.00017264 </v>
   <v>      -0.00017057       0.00004661       0.00043404 </v>
   <v>       0.00019743       0.00095159       0.00018775 </v>
   <v>       0.00006903      -0.00014502       0.00003484 </v>
   <v>      -0.00014080       0.00008036      -0.00000346 </v>
   <v>      -0.00000664      -0.00035681      -0.00000405 </v>
   <v>       0.00048937      -0.00034286       0.00000550 </v>
   <v>      -0.00004366      -0.00021167       0.00084906 </v>
   <v>       0.00016097      -0.00005476      -0.00016966 </v>
   <v>      -0.00016498       0.00005858       0.00046922 </v>
   <v>      -0.00037148      -0.00005498      -0.00002254 </v>
   <v>      -0.00025022      -0.00030392      -0.00029359 </v>
   <v>      -0.00082932       0.00086595      -0.00017219 </v>
   <v>       0.00003178      -0.00038743      -0.00005247 </v>
   <v>       0.00013480      -0.00014499       0.00001294 </v>
   <v>       0.00022778      -0.00005804       0.00001853 </v>
   <v>       0.00022399      -0.00002314      -0.00007231 </v>
   <v>      -0.00015756       0.00003123      -0.00029907 </v>
   <v>      -0.00015108       0.00009321       0.00001761 </v>
   <v>      -0.00010476       0.00001976      -0.00049140 </v>
   <v>       0.00004716       0.00023004      -0.00022526 </v>
   <v>       0.00001849      -0.00018832      -0.00065452 </v>
   <v>       0.00020351      -0.00016633      -0.00047850 </v>
   <v>       0.00004495       0.00001321       0.00000550 </v>
   <v>      -0.00035793      -0.00041221      -0.00020033 </v>
   <v>       0.00001274       0.00065656       0.00006054 </v>
   <v>      -0.00009285       0.00005655       0.00032751 </v>
   <v>       0.00022728      -0.00029190      -0.00001989 </v>
   <v>      -0.00015156      -0.00001517      -0.00012185 </v>
   <v>      -0.00021612      -0.00008042       0.00015777 </v>
   <v>      -0.00014812      -0.00004099       0.00041802 </v>
   <v>       0.00018746       0.00033630       0.00065397 </v>
   <v>      -0.00011843       0.00014844       0.00032865 </v>
   <v>       0.00017606       0.00019335      -0.00024872 </v>
   <v>       0.00022398       0.00004141      -0.00009204 </v>
   <v>      -0.00037384       0.00037322      -0.00003114 </v>
   <v>       0.00037452      -0.00001283      -0.00018536 </v>
   <v>      -0.00012019      -0.00033173       0.00028261 </v>
   <v>      -0.00012602      -0.00038625      -0.00026292 </v>
   <v>      -0.00001273       0.00015553      -0.00023075 </v>
   <v>       0.00024893      -0.00009159      -0.00004678 </v>
   <v>      -0.00030210      -0.00001650      -0.00003479 </v>
   <v>       0.00021576      -0.00023263      -0.00024886 </v>
   <v>       0.00024360       0.00004427      -0.00006830 </v>
   <v>      -0.00020051      -0.00001749       0.00003447 </v>
   <v>       0.00001817      -0.00003613      -0.00015488 </v>
   <v>       0.00001189      -0.00006339      -0.00008846 </v>
   <v>       0.00042469      -0.00047671       0.00002902 </v>
   <v>       0.00010963       0.00028539       0.00028081 </v>
   <v>       0.00039769       0.00024939       0.00022375 </v>
   <v>      -0.00011126       0.00007393       0.00057681 </v>
  </varray>
  <varray name="stress" >
   <v>       2.08622841       2.54589155       0.73616967 </v>
   <v>       2.54589185      -1.19621604       1.05919931 </v>
   <v>       0.73617024       1.05919947      -0.84808812 </v>
  </varray>
  <energy>
   <i name="e_fr_energy">   -272.44351026 </i>
   <i name="e_wo_entrp">   -272.44351026 </i>
   <i name="e_0_energy">   -272.44351026 </i>
  </energy>
  <time name="totalsc">    7.67    7.75</time>
 </calculation>
 <calculation>
  <scstep>
   <time name="dav">    2.13    2.15</time>
   <time name="total">    2.66    2.68</time>
   <energy>
    <i name="alphaZ">    302.12791739 </i>
    <i name="ewald">  -8852.91601181 </i>
    <i name="hartreedc">  -2183.17843909 </i>
    <i name="XCdc">    537.91793526 </i>
    <i name="pawpsdc">   9818.02056312 </i>
    <i name="pawaedc">  -9962.02820529 </i>
    <i name="eentropy">     -0.00000000 </i>
    <i name="bandstr">  -2621.89622599 </i>
    <i name="atom">  12703.13999606 </i>
    <i name="e_fr_energy">   -258.81247035 </i>
    <i name="e_wo_entrp">   -258.81247035 </i>
    <i name="e_0_energy">   -258.81247035 </i>
   </energy>
  </scstep>
  <scstep>
   <time name="diag">    0.37    0.37</time>
   <time name="diis">    0.81    0.81</time>
   <time name="orth">    0.07    0.07</time>
   <time name="total">    1.70    1.71</time>
   <energy>
    <i name="alphaZ">    302.12791739 </i>
    <i name="ewald">  -8852.91601181 </i>
    <i name="hartreedc">  -2183.17807483 </i>
    <i name="XCdc">    537.91781498 </i>
    <i name="pawpsdc">   9818.00155797 </i>
    <i name="pawaedc">  -9962.00899503 </i>
    <i name="eentropy">     -0.00000000 </i>
    <i name="bandstr">  -2621.89667508 </i>
    <i name="atom">  12703.13999606 </i>
    <i name="e_fr_energy">   -258.81247035 </i>
    <i name="e_wo_entrp">   -258.81247035 </i>
    <i name="e_0_energy">   -258.81247035 </i>
   </energy>
  </scstep>
  <structure>
   <crystal>
    <varray name="basis" >
     <v>       9.64947454       0.00000000       0.00000000 </v>
     <v>       0.00000000       9.64947454       0.00000000 </v>
     <v>       0.00000000       0.00000000       9.64947454 </v>
    </varray>
    <i name="volume">    898.48533701 </i>
    <varray name="rec_basis" >
     <v>       0.10363259       0.00000000       0.00000000 </v>
     <v>       0.00000000       0.10363259       0.00000000 </v>
     <v>       0.00000000       0.00000000       0.10363259 </v>
    </varray>
   </crystal>
   <varray name="positions" >
    <v>       0.96578915       0.32073097       0.34294650 </v>
    <v>       0.98735882       0.69779344       0.71723333 </v>
    <v>       0.02920189       0.34620576       0.71294689 </v>
    <v>       0.03268068       0.84427993       0.21593815 </v>
    <v>       0.19272014       0.19410826       0.99875139 </v>
    <v>       0.21988059       0.80428083       0.01770488 </v>
    <v>       0.83822294       0.18178788       0.04675646 </v>
    <v>       0.82847778       0.81953072       0.96292510 </v>
    <v>       0.32606204       0.95867302       0.34811631 </v>
    <v>       0.18770639       0.01604923       0.79021153 </v>
    <v>       0.72920294       0.98652403       0.71569299 </v>
    <v>       0.67736810       0.02488180       0.30687520 </v>
    <v>       0.17981953       0.66439227       0.45957260 </v>
    <v>       0.24393714       0.24155694       0.53081580 </v>
    <v>       0.80419595       0.66924449       0.52173352 </v>
    <v>       0.70528141       0.22639697       0.49334750 </v>
    <v>       0.33703079       0.46327809       0.83013939 </v>
    <v>       0.28985787       0.51786943       0.19683841 </v>
    <v>       0.71700007       0.48773232       0.21241071 </v>
    <v>       0.67572720       0.54430720       0.84295196 </v>
    <v>       0.47233351       0.18895975       0.71289445 </v>
    <v>       0.48263222       0.70929113       0.18490664 </v>
    <v>       0.52408867       0.29124812       0.17892877 </v>
    <v>       0.52727029       0.79905472       0.65750416 </v>
    <v>       0.49109010       0.50067538       0.50722834 </v>
    <v>       0.50906906       0.99953139       0.99890732 </v>
    <v>       0.99988265       0.50452908       0.01469683 </v>
    <v>       0.99908746       0.00039581       0.50087062 </v>
    <v>       0.13140283       0.87058866       0.60629275 </v>
    <v>       0.11809087       0.11296385       0.36476411 </v>
    <v>       0.86330402       0.88028567       0.39153433 </v>
    <v>       0.89809961       0.13695036       0.62970869 </v>
    <v>       0.89000406       0.64259616       0.13186907 </v>
    <v>       0.86726249       0.38741161       0.89712178 </v>
    <v>       0.13657743       0.60893958       0.88875675 </v>
    <v>       0.10681358       0.37181084       0.14204372 </v>
    <v>       0.63239233       0.13646607       0.89305285 </v>
    <v>       0.64017424       0.87784840       0.11392506 </v>
    <v>       0.37943252       0.10034894       0.13480570 </v>
    <v>       0.39412824       0.88268048       0.86339823 </v>
    <v>       0.60805583       0.63168588       0.38626337 </v>
    <v>       0.61271340       0.39143845       0.64396023 </v>
    <v>       0.36095508       0.61665339       0.62754598 </v>
    <v>       0.38147886       0.37081541       0.37948414 </v>
    <v>       0.75390266       0.75164257       0.74548740 </v>
    <v>       0.74766680       0.25371804       0.26105895 </v>
    <v>       0.25487727       0.74935739       0.24746006 </v>
    <v>       0.24587181       0.24755660       0.76761608 </v>
    <v>       0.02443941       0.98696134       0.99610331 </v>
    <v>       0.99622881       0.50700133       0.52110335 </v>
    <v>       0.52615675       0.02262222       0.52061488 </v>
    <v>       0.49966345       0.50100724       0.03546480 </v>
   </varray>
  </structure>
  <varray name="forces" >
   <v>      -0.00009535       0.00010413      -0.00029816 </v>
   <v>       0.00014865      -0.00017027      -0.00021903 </v>
   <v>      -0.00023270       0.00007126       0.00060142 </v>
   <v>       0.00031315       0.00142095       0.00031473 </v>
   <v>       0.00009005      -0.00020677       0.00006159 </v>
   <v>      -0.00015513       0.00009949      -0.00000474 </v>
   <v>       0.00001640      -0.00047110       0.00001637 </v>
   <v>       0.00071931      -0.00048238       0.00004377 </v>
   <v>      -0.00005211      -0.00028437       0.00131496 </v>
   <v>       0.00022051      -0.00007142      -0.00020084 </v>
   <v>      -0.00021084       0.00009368       0.00066414 </v>
   <v>      -0.00050801      -0.00005204      -0.00000654 </v>
   <v>      -0.00030707      -0.00037766      -0.00035214 </v>
   <v>      -0.00127647       0.00131907      -0.00020862 </v>
   <v>       0.00002889      -0.00050573      -0.00004254 </v>
   <v>       0.00020256      -0.00016663       0.00004917 </v>
   <v>       0.00030870      -0.00004090       0.00006079 </v>
   <v>       0.00029673       0.00000080      -0.00007194 </v>
   <v>      -0.00018930       0.00005772      -0.00037778 </v>
   <v>      -0.00021562       0.00012212       0.00006032 </v>
   <v>      -0.00014189       0.00004573      -0.00063404 </v>
   <v>       0.00006804       0.00034235      -0.00028280 </v>
   <v>       0.00005135      -0.00028335      -0.00094688 </v>
   <v>       0.00026171      -0.00021066      -0.00061069 </v>
   <v>       0.00003705      -0.00019187      -0.00033565 </v>
   <v>       0.00012544       0.00002520       0.00012041 </v>
   <v>      -0.00004264       0.00028614       0.00037673 </v>
   <v>      -0.00025787      -0.00014969      -0.00003854 </v>
   <v>       0.00027929      -0.00026706       0.00000205 </v>
   <v>      -0.00019216      -0.00004506      -0.00004127 </v>
   <v>      -0.00010987       0.00000531       0.00027034 </v>
   <v>      -0.00008001      -0.00005146       0.00051333 </v>
   <v>       0.00025432       0.00035296       0.00066949 </v>
   <v>      -0.00010364       0.00022616       0.00037239 </v>
   <v>       0.00020833       0.00024467      -0.00026911 </v>
   <v>       0.00020229       0.00014565      -0.00015276 </v>
   <v>      -0.00048873       0.00026012       0.00003665 </v>
   <v>       0.00032301       0.00001074      -0.00027660 </v>
   <v>      -0.00012429      -0.00044158       0.00026283 </v>
   <v>      -0.00014852      -0.00048994      -0.00033138 </v>
   <v>      -0.00005753       0.00018757      -0.00015280 </v>
   <v>       0.00026321      -0.00000394      -0.00001303 </v>
   <v>      -0.00031779       0.00002365       0.00002637 </v>
   <v>       0.00026612      -0.00017480      -0.00014866 </v>
   <v>       0.00022209       0.00004307      -0.00004424 </v>
   <v>      -0.00018855      -0.00000486       0.00007761 </v>
   <v>       0.00001394      -0.00002833      -0.00015643 </v>
   <v>       0.00001601      -0.00008010      -0.00008609 </v>
   <v>       0.00021244      -0.00014478      -0.00006390 </v>
   <v>       0.00016586      -0.00026349       0.00018577 </v>
   <v>       0.00014054      -0.00002643       0.00018055 </v>
   <v>       0.00004010       0.00019816       0.00008545 </v>
  </varray>
  <varray name="stress" >
   <v>       2.08237675       2.54548799       0.73590211 </v>
   <v>       2.54548809      -1.20031355       1.05949245 </v>
   <v>       0.73590233       1.05949260      -0.85197979 </v>
  </varray>
  <energy>
   <i name="e_fr_energy">   -272.44351047 </i>
   <i name="e_wo_entrp">   -272.44351047 </i>
   <i name="e_0_energy">   -272.44351047 </i>
  </energy>
  <time name="totalsc">    7.45    7.52</time>
 </calculation>
 <calculation>
  <scstep>
   <time name="dav">    2.41    2.43</time>
   <time name="total">    2.93    2.96</time>
   <energy>
    <i name="alphaZ">    302.12791739 </i>
    <i name="ewald">  -8852.92779675 </i>
    <i name="hartreedc">  -2183.16854981 </i>
    <i name="XCdc">    537.91751342 </i>
    <i name="pawpsdc">   9817.99062401 </i>
    <i name="pawaedc">  -9961.99795551 </i>
    <i name="eentropy">     -0.00000000 </i>
    <i name="bandstr">  -2621.89421858 </i>
    <i name="atom">  12703.13999606 </i>
    <i name="e_fr_energy">   -258.81246976 </i>
    <i name="e_wo_entrp">   -258.81246976 </i>
    <i name="e_0_energy">   -258.81246976 </i>
   </energy>
  </scstep>
  <scstep>
   <time name="diag">    0.37    0.37</time>
   <time name="diis">    0.85    0.89</time>
   <time name="orth">    0.07    0.07</time>
   <time name="total">    1.73    1.78</time>
   <energy>
    <i name="alphaZ">    302.12791739 </i>
    <i name="ewald">  -8852.92779675 </i>
    <i name="hartreedc">  -2183.16774772 </i>
    <i name="XCdc">    537.91744416 </i>
    <i name="pawpsdc">   9817.97544259 </i>
    <i name="pawaedc">  -9961.98270051 </i>
    <i name="eentropy">     -0.00000000 </i>
    <i name="bandstr">  -2621.89502501 </i>
    <i name="atom">  12703.13999606 </i>
    <i name="e_fr_energy">   -258.81246978 </i>
    <i name="e_wo_entrp">   -258.81246978 </i>
    <i name="e_0_energy">   -258.81246978 </i>
   </energy>
  </scstep>
  <structure>
   <crystal>
    <varray name="basis" >
     <v>       9.64947454       0.00000000       0.00000000 </v>
     <v>       0.00000000       9.64947454       0.00000000 </v>
     <v>       0.00000000       0.00000000       9.64947454 </v>
    </varray>
    <i name="volume">    898.48533701 </i>
    <varray name="rec_basis" >
     <v>       0.10363259       0.00000000       0.00000000 </v>
     <v>       0.00000000       0.10363259       0.00000000 </v>
     <v>       0.00000000       0.00000000       0.10363259 </v>
    </varray>
   </crystal>
   <varray name="positions" >
    <v>       0.96578899       0.32073115       0.34294612 </v>
    <v>       0.98735921       0.69779316       0.71723303 </v>
    <v>       0.02920153       0.34620588       0.71294795 </v>
    <v>       0.03268127       0.84428211       0.21593858 </v>
    <v>       0.19272036       0.19410782       0.99875143 </v>
    <v>       0.21988044       0.80428097       0.01770463 </v>
    <v>       0.83822301       0.18178710       0.04675645 </v>
    <v>       0.82847899       0.81952991       0.96292517 </v>
    <v>       0.32606193       0.95867259       0.34811844 </v>
    <v>       0.18770693       0.01604898       0.79021121 </v>
    <v>       0.72920261       0.98652420       0.71569417 </v>
    <v>       0.67736722       0.02488177       0.30687528 </v>
    <v>       0.17981909       0.66439174       0.45957219 </v>
    <v>       0.24393507       0.24155902       0.53081562 </v>
    <v>       0.80419601       0.66924361       0.52173358 </v>
    <v>       0.70528188       0.22639668       0.49334781 </v>
    <v>       0.33703125       0.46327821       0.83013945 </v>
    <v>       0.28985850       0.51786962       0.19683826 </v>
    <v>       0.71699978       0.48773256       0.21241007 </v>
    <v>       0.67572685       0.54430743       0.84295204 </v>
    <v>       0.47233322       0.18895986       0.71289337 </v>
    <v>       0.48263228       0.70929177       0.18490615 </v>
    <v>       0.52408878       0.29124771       0.17892732 </v>
    <v>       0.52727060       0.79905435       0.65750332 </v>
    <v>       0.49109042       0.50067641       0.50723000 </v>
    <v>       0.50906645       0.99952874       0.99890582 </v>
    <v>       0.99988289       0.50453159       0.01469575 </v>
    <v>       0.99908819       0.00039700       0.50087279 </v>
    <v>       0.13140331       0.87058823       0.60629230 </v>
    <v>       0.11809069       0.11296404       0.36476332 </v>
    <v>       0.86330197       0.88028429       0.39153364 </v>
    <v>       0.89809999       0.13694977       0.62970917 </v>
    <v>       0.89000449       0.64259699       0.13187092 </v>
    <v>       0.86726169       0.38741154       0.89712258 </v>
    <v>       0.13657725       0.60893913       0.88875705 </v>
    <v>       0.10681468       0.37180971       0.14204470 </v>
    <v>       0.63239283       0.13646862       0.89305214 </v>
    <v>       0.64017588       0.87784788       0.11392510 </v>
    <v>       0.37943166       0.10034832       0.13480714 </v>
    <v>       0.39412967       0.88268099       0.86339937 </v>
    <v>       0.60805596       0.63168666       0.38626284 </v>
    <v>       0.61271387       0.39143875       0.64396017 </v>
    <v>       0.36095503       0.61665294       0.62754552 </v>
    <v>       0.38147855       0.37081382       0.37948262 </v>
    <v>       0.75390285       0.75164246       0.74548746 </v>
    <v>       0.74766681       0.25371797       0.26105872 </v>
    <v>       0.25487734       0.74935760       0.24746030 </v>
    <v>       0.24587175       0.24755685       0.76761620 </v>
    <v>       0.02443874       0.98696237       0.99610305 </v>
    <v>       0.99622896       0.50699960       0.52110296 </v>
    <v>       0.52615609       0.02262145       0.52061465 </v>
    <v>       0.49966392       0.50100752       0.03546343 </v>
   </varray>
  </structure>
  <varray name="forces" >
   <v>      -0.00007119       0.00008954      -0.00031964 </v>
   <v>       0.00008088      -0.00014932      -0.00022608 </v>
   <v>      -0.00021227       0.00005756       0.00051316 </v>
   <v>       0.00019468       0.00115889       0.00028067 </v>
   <v>       0.00006300      -0.00014626       0.00009239 </v>
   <v>      -0.00017114       0.00009700       0.00008049 </v>
   <v>      -0.00000813      -0.00040301       0.00001923 </v>
   <v>       0.00053785      -0.00036292       0.00004416 </v>
   <v>      -0.00003269      -0.00021802       0.00101075 </v>
   <v>       0.00015076      -0.00001722      -0.00018348 </v>
   <v>      -0.00019291       0.00009520       0.00058891 </v>
   <v>      -0.00044572      -0.00006732      -0.00003659 </v>
   <v>      -0.00030348      -0.00036465      -0.00037490 </v>
   <v>      -0.00100752       0.00108857      -0.00024252 </v>
   <v>       0.00002343      -0.00042960      -0.00008655 </v>
   <v>       0.00015059      -0.00014474      -0.00002117 </v>
   <v>       0.00027943      -0.00009686       0.00006617 </v>
   <v>       0.00024961      -0.00006529      -0.00005091 </v>
   <v>      -0.00017388       0.00002296      -0.00033988 </v>
   <v>      -0.00017130       0.00008338       0.00005268 </v>
   <v>      -0.00009352       0.00005041      -0.00055407 </v>
   <v>       0.00008212       0.00029731      -0.00024230 </v>
   <v>       0.00003062      -0.00023917      -0.00077522 </v>
   <v>       0.00027587      -0.00017176      -0.00058502 </v>
   <v>      -0.00003704      -0.00062738      -0.00107709 </v>
   <v>       0.00109298       0.00094810       0.00072012 </v>
   <v>      -0.00014923      -0.00043038       0.00097923 </v>
   <v>      -0.00063102      -0.00062426      -0.00081686 </v>
   <v>       0.00035365      -0.00029661       0.00005152 </v>
   <v>      -0.00029602      -0.00014515       0.00006698 </v>
   <v>       0.00035452       0.00040777       0.00066328 </v>
   <v>      -0.00017108       0.00010404       0.00071775 </v>
   <v>       0.00039501       0.00028274       0.00063676 </v>
   <v>      -0.00004367       0.00034140       0.00044701 </v>
   <v>       0.00043654       0.00044876      -0.00051323 </v>
   <v>      -0.00007872       0.00054601      -0.00053797 </v>
   <v>      -0.00095920      -0.00013095       0.00036154 </v>
   <v>       0.00010190       0.00019564      -0.00050866 </v>
   <v>       0.00001796      -0.00062912       0.00007044 </v>
   <v>      -0.00057160      -0.00098233      -0.00085558 </v>
   <v>      -0.00015445       0.00011578      -0.00002206 </v>
   <v>       0.00030648       0.00000083       0.00004666 </v>
   <v>      -0.00049700       0.00019420       0.00019766 </v>
   <v>       0.00057074       0.00018884       0.00023288 </v>
   <v>       0.00022901      -0.00000217      -0.00003060 </v>
   <v>      -0.00016920      -0.00001338       0.00002331 </v>
   <v>       0.00002401       0.00003383      -0.00011467 </v>
   <v>      -0.00001436      -0.00001619      -0.00007169 </v>
   <v>       0.00031112      -0.00029254      -0.00004079 </v>
   <v>       0.00015250      -0.00002375       0.00022307 </v>
   <v>       0.00021437       0.00007248       0.00020146 </v>
   <v>      -0.00002331       0.00016914       0.00023931 </v>
  </varray>
  <varray name="stress" >
   <v>       2.07887647       2.54450647       0.73494932 </v>
   <v>       2.54450645      -1.20424688       1.06052097 </v>
   <v>       0.73494974       1.06052100      -0.85511022 </v>
  </varray>
  <energy>
   <i name="e_fr_energy">   -272.44351063 </i>
   <i name="e_wo_entrp">   -272.44351063 </i>
   <i name="e_0_energy">   -272.44351063 </i>
  </energy>
  <time name="totalsc">    7.74    7.85</time>
 </calculation>
 <calculation>
  <scstep>
   <time name="dav">    2.37    2.38</time>
   <time name="total">    2.89    2.91</time>
   <energy>
    <i name="alphaZ">    302.12791739 </i>
    <i name="ewald">  -8852.93767932 </i>
    <i name="hartreedc">  -2183.15965695 </i>
    <i name="XCdc">    537.91720158 </i>
    <i name="pawpsdc">   9817.96555506 </i>
    <i name="pawaedc">  -9961.97274321 </i>
    <i name="eentropy">     -0.00000000 </i>
    <i name="bandstr">  -2621.89306013 </i>
    <i name="atom">  12703.13999606 </i>
    <i name="e_fr_energy">   -258.81246952 </i>
    <i name="e_wo_entrp">   -258.81246952 </i>
    <i name="e_0_energy">   -258.81246952 </i>
   </energy>
  </scstep>
  <scstep>
   <time name="diag">    0.36    0.37</time>
   <time name="diis">    0.81    0.81</time>
   <time name="orth">    0.07    0.07</time>
   <time name="total">    1.69    1.71</time>
   <energy>
    <i name="alphaZ">    302.12791739 </i>
    <i name="ewald">  -8852.93767932 </i>
    <i name="hartreedc">  -2183.15912529 </i>
    <i name="XCdc">    537.91716216 </i>
    <i name="pawpsdc">   9817.95362235 </i>
    <i name="pawaedc">  -9961.96075669 </i>
    <i name="eentropy">     -0.00000000 </i>
    <i name="bandstr">  -2621.89360630 </i>
    <i name="atom">  12703.13999606 </i>
    <i name="e_fr_energy">   -258.81246964 </i>
    <i name="e_wo_entrp">   -258.81246964 </i>
    <i name="e_0_energy">   -258.81246964 </i>
   </energy>
  </scstep>
  <structure>
   <crystal>
    <varray name="basis" >
     <v>       9.64947454       0.00000000       0.00000000 </v>
     <v>       0.00000000       9.64947454       0.00000000 </v>
     <v>       0.00000000       0.00000000       9.64947454 </v>
    </varray>
    <i name="volume">    898.48533701 </i>
    <varray name="rec_basis" >
     <v>       0.10363259       0.00000000       0.00000000 </v>
     <v>       0.00000000       0.10363259       0.00000000 </v>
     <v>       0.00000000       0.00000000       0.10363259 </v>
    </varray>
   </crystal>
   <varray name="positions" >
    <v>       0.96578869       0.32073150       0.34294504 </v>
    <v>       0.98735971       0.69779258       0.71723225 </v>
    <v>       0.02920073       0.34620611       0.71295001 </v>
    <v>       0.03268220       0.84428663       0.21593960 </v>
    <v>       0.19272068       0.19410712       0.99875168 </v>
    <v>       0.21987990       0.80428131       0.01770464 </v>
    <v>       0.83822305       0.18178552       0.04675649 </v>
    <v>       0.82848125       0.81952839       0.96292533 </v>
    <v>       0.32606176       0.95867173       0.34812255 </v>
    <v>       0.18770772       0.01604874       0.79021051 </v>
    <v>       0.72920188       0.98652457       0.71569653 </v>
    <v>       0.67736545       0.02488158       0.30687525 </v>
    <v>       0.17981801       0.66439043       0.45957095 </v>
    <v>       0.24393100       0.24156330       0.53081489 </v>
    <v>       0.80419610       0.66924187       0.52173342 </v>
    <v>       0.70528262       0.22639610       0.49334801 </v>
    <v>       0.33703229       0.46327807       0.83013965 </v>
    <v>       0.28985959       0.51786960       0.19683802 </v>
    <v>       0.71699913       0.48773280       0.21240874 </v>
    <v>       0.67572616       0.54430782       0.84295223 </v>
    <v>       0.47233277       0.18896006       0.71289119 </v>
    <v>       0.48263253       0.70929299       0.18490518 </v>
    <v>       0.52408893       0.29124681       0.17892431 </v>
    <v>       0.52727151       0.79905364       0.65750125 </v>
    <v>       0.49109057       0.50067570       0.50722867 </v>
    <v>       0.50906707       0.99952897       0.99890640 </v>
    <v>       0.99988272       0.50453250       0.01469729 </v>
    <v>       0.99908723       0.00039641       0.50087251 </v>
    <v>       0.13140454       0.87058717       0.60629207 </v>
    <v>       0.11808983       0.11296384       0.36476287 </v>
    <v>       0.86330123       0.88028421       0.39153471 </v>
    <v>       0.89809988       0.13694956       0.62971130 </v>
    <v>       0.89000577       0.64259832       0.13187391 </v>
    <v>       0.86726096       0.38741231       0.89712429 </v>
    <v>       0.13657817       0.60893987       0.88875605 </v>
    <v>       0.10681536       0.37181016       0.14204415 </v>
    <v>       0.63239089       0.13647029       0.89305247 </v>
    <v>       0.64017741       0.87784795       0.11392390 </v>
    <v>       0.37943104       0.10034630       0.13480843 </v>
    <v>       0.39412941       0.88267900       0.86339818 </v>
    <v>       0.60805568       0.63168754       0.38626237 </v>
    <v>       0.61271499       0.39143899       0.64396023 </v>
    <v>       0.36095378       0.61665305       0.62754563 </v>
    <v>       0.38147970       0.37081303       0.37948200 </v>
    <v>       0.75390356       0.75164237       0.74548743 </v>
    <v>       0.74766641       0.25371788       0.26105859 </v>
    <v>       0.25487746       0.74935784       0.24746020 </v>
    <v>       0.24587167       0.24755702       0.76761612 </v>
    <v>       0.02443898       0.98696246       0.99610275 </v>
    <v>       0.99622945       0.50699820       0.52110320 </v>
    <v>       0.52615609       0.02262102       0.52061496 </v>
    <v>       0.49966424       0.50100814       0.03546294 </v>
   </varray>
  </structure>
  <varray name="forces" >
   <v>      -0.00006682       0.00004497      -0.00017832 </v>
   <v>       0.00009356      -0.00008219      -0.00010785 </v>
   <v>      -0.00013469       0.00003148       0.00033566 </v>
   <v>       0.00017489       0.00074938       0.00016222 </v>
   <v>       0.00005061      -0.00009662       0.00001762 </v>
   <v>      -0.00006185       0.00004833      -0.00001922 </v>
   <v>       0.00000034      -0.00022366       0.00002657 </v>
   <v>       0.00034610      -0.00023602       0.00000616 </v>
   <v>      -0.00003286      -0.00016691       0.00068124 </v>
   <v>       0.00013566      -0.00005338      -0.00011535 </v>
   <v>      -0.00010206       0.00005346       0.00034631 </v>
   <v>      -0.00026958      -0.00000429      -0.00001386 </v>
   <v>      -0.00016170      -0.00019857      -0.00017642 </v>
   <v>      -0.00064801       0.00068652      -0.00010031 </v>
   <v>       0.00001347      -0.00028081      -0.00000495 </v>
   <v>       0.00011746      -0.00007289       0.00002160 </v>
   <v>       0.00013752      -0.00001266       0.00002182 </v>
   <v>       0.00014107       0.00002216      -0.00003697 </v>
   <v>      -0.00009264       0.00001655      -0.00019380 </v>
   <v>      -0.00010259       0.00006883       0.00001826 </v>
[...]
       <r>     8.0340    11.2023   144.5513 </r>
       <r>     8.2270    13.4597   147.1495 </r>
       <r>     8.4200    16.2221   150.2809 </r>
       <r>     8.6130    12.6221   152.7171 </r>
       <r>     8.8060    16.3529   155.8756 </r>
       <r>     8.9990    17.9420   159.3394 </r>
       <r>     9.1920    15.7028   162.3703 </r>
       <r>     9.3850    18.1508   165.8753 </r>
       <r>     9.5780    18.2435   169.4036 </r>
       <r>     9.7710    18.9138   173.0585 </r>
       <r>     9.9640    12.3537   175.4434 </r>
       <r>    10.1570     2.8837   176.0000 </r>
       <r>    10.3500     0.0000   176.0000 </r>
       <r>    10.5430     0.0000   176.0000 </r>
       <r>    10.7360     0.0000   176.0000 </r>
       <r>    10.9290     0.0000   176.0000 </r>
       <r>    11.1220     0.0000   176.0000 </r>
       <r>    11.3150     0.0000   176.0000 </r>
       <r>    11.5080     0.0000   176.0000 </r>
       <r>    11.7010     0.0000   176.0000 </r>
       <r>    11.8940     0.0000   176.0000 </r>
       <r>    12.0870     0.0000   176.0000 </r>
       <r>    12.2800     0.0000   176.0000 </r>
       <r>    12.4730     0.0000   176.0000 </r>
       <r>    12.6660     0.0000   176.0000 </r>
      </set>
      <set comment="spin 2">
       <r>   -45.2331     0.0000     0.0000 </r>
       <r>   -45.0401     0.0000     0.0000 </r>
       <r>   -44.8471     0.0000     0.0000 </r>
       <r>   -44.6541     0.0000     0.0000 </r>
       <r>   -44.4611     0.0000     0.0000 </r>
       <r>   -44.2682     0.0000     0.0000 </r>
       <r>   -44.0752     0.0000     0.0000 </r>
       <r>   -43.8822     0.0000     0.0000 </r>
       <r>   -43.6892     0.0000     0.0000 </r>
       <r>   -43.4962     0.0000     0.0000 </r>
       <r>   -43.3032     0.0000     0.0000 </r>
       <r>   -43.1102     0.0000     0.0000 </r>
       <r>   -42.9172     0.0000     0.0000 </r>
       <r>   -42.7242     0.0000     0.0000 </r>
       <r>   -42.5312     9.2382     1.7829 </r>
       <r>   -42.3382    49.5209    11.3408 </r>
       <r>   -42.1452    65.5653    23.9992 </r>
       <r>   -41.9522     0.0000    24.0000 </r>
       <r>   -41.7592     0.0000    24.0000 </r>
       <r>   -41.5662     0.0000    24.0000 </r>
       <r>   -41.3732     0.0000    24.0000 </r>
       <r>   -41.1802     0.0000    24.0000 </r>
       <r>   -40.9872     0.0000    24.0000 </r>
       <r>   -40.7942     0.0000    24.0000 </r>
       <r>   -40.6012     0.0000    24.0000 </r>
       <r>   -40.4082     0.0000    24.0000 </r>
       <r>   -40.2152     0.0000    24.0000 </r>
       <r>   -40.0222     0.0000    24.0000 </r>
       <r>   -39.8292     0.0000    24.0000 </r>
       <r>   -39.6362     0.0000    24.0000 </r>
       <r>   -39.4432     0.0000    24.0000 </r>
       <r>   -39.2502     0.0000    24.0000 </r>
       <r>   -39.0572     0.0000    24.0000 </r>
       <r>   -38.8642     0.0000    24.0000 </r>
       <r>   -38.6712     0.0000    24.0000 </r>
       <r>   -38.4782     0.0000    24.0000 </r>
       <r>   -38.2852     0.0000    24.0000 </r>
       <r>   -38.0922     0.0000    24.0000 </r>
       <r>   -37.8993     0.0000    24.0000 </r>
       <r>   -37.7063     0.0000    24.0000 </r>
       <r>   -37.5133     0.0000    24.0000 </r>
       <r>   -37.3203     0.0000    24.0000 </r>
       <r>   -37.1273     0.0000    24.0000 </r>
       <r>   -36.9343     0.0000    24.0000 </r>
       <r>   -36.7413     0.0000    24.0000 </r>
       <r>   -36.5483     0.0000    24.0000 </r>
       <r>   -36.3553     0.0000    24.0000 </r>
       <r>   -36.1623     0.0000    24.0000 </r>
       <r>   -35.9693     0.0000    24.0000 </r>
       <r>   -35.7763     0.0000    24.0000 </r>
       <r>   -35.5833     0.0000    24.0000 </r>
       <r>   -35.3903     0.0000    24.0000 </r>
       <r>   -35.1973     0.0000    24.0000 </r>
       <r>   -35.0043     0.0000    24.0000 </r>
       <r>   -34.8113     0.0000    24.0000 </r>
       <r>   -34.6183     0.0000    24.0000 </r>
       <r>   -34.4253     0.0000    24.0000 </r>
       <r>   -34.2323     0.0000    24.0000 </r>
       <r>   -34.0393     0.0000    24.0000 </r>
       <r>   -33.8463     0.0000    24.0000 </r>
       <r>   -33.6533     0.0000    24.0000 </r>
       <r>   -33.4603     0.0000    24.0000 </r>
       <r>   -33.2673     0.0000    24.0000 </r>
       <r>   -33.0743     0.0000    24.0000 </r>
       <r>   -32.8813     0.0000    24.0000 </r>
       <r>   -32.6883     0.0000    24.0000 </r>
       <r>   -32.4953     0.0000    24.0000 </r>
       <r>   -32.3023     0.0000    24.0000 </r>
       <r>   -32.1093     0.0000    24.0000 </r>
       <r>   -31.9163     0.0000    24.0000 </r>
       <r>   -31.7233     0.0000    24.0000 </r>
       <r>   -31.5303     0.0000    24.0000 </r>
       <r>   -31.3374     0.0000    24.0000 </r>
       <r>   -31.1444     0.0000    24.0000 </r>
       <r>   -30.9514     0.0000    24.0000 </r>
       <r>   -30.7584     0.0000    24.0000 </r>
       <r>   -30.5654     0.0000    24.0000 </r>
       <r>   -30.3724     0.0000    24.0000 </r>
       <r>   -30.1794     0.0000    24.0000 </r>
       <r>   -29.9864     0.0000    24.0000 </r>
       <r>   -29.7934     0.0000    24.0000 </r>
       <r>   -29.6004     0.0000    24.0000 </r>
       <r>   -29.4074     0.0000    24.0000 </r>
       <r>   -29.2144     0.0000    24.0000 </r>
       <r>   -29.0214     0.0000    24.0000 </r>
       <r>   -28.8284     0.0000    24.0000 </r>
       <r>   -28.6354     0.0000    24.0000 </r>
       <r>   -28.4424     0.0000    24.0000 </r>
       <r>   -28.2494     0.0000    24.0000 </r>
       <r>   -28.0564     0.0000    24.0000 </r>
       <r>   -27.8634     0.0000    24.0000 </r>
       <r>   -27.6704     0.0000    24.0000 </r>
       <r>   -27.4774     0.0000    24.0000 </r>
       <r>   -27.2844     0.0000    24.0000 </r>
       <r>   -27.0914     0.0000    24.0000 </r>
       <r>   -26.8984     0.0000    24.0000 </r>
       <r>   -26.7054     0.0000    24.0000 </r>
       <r>   -26.5124     0.0000    24.0000 </r>
       <r>   -26.3194     0.0000    24.0000 </r>
       <r>   -26.1264     0.0000    24.0000 </r>
       <r>   -25.9334     0.0000    24.0000 </r>
       <r>   -25.7404     0.0000    24.0000 </r>
       <r>   -25.5474     0.0000    24.0000 </r>
       <r>   -25.3544     0.0000    24.0000 </r>
       <r>   -25.1614     0.0000    24.0000 </r>
       <r>   -24.9685     0.0000    24.0000 </r>
       <r>   -24.7755     0.0000    24.0000 </r>
       <r>   -24.5825     0.0000    24.0000 </r>
       <r>   -24.3895     0.0000    24.0000 </r>
       <r>   -24.1965     0.0000    24.0000 </r>
       <r>   -24.0035     0.0000    24.0000 </r>
       <r>   -23.8105     0.0000    24.0000 </r>
       <r>   -23.6175     0.0000    24.0000 </r>
       <r>   -23.4245     0.0000    24.0000 </r>
       <r>   -23.2315     0.0000    24.0000 </r>
       <r>   -23.0385     0.0000    24.0000 </r>
       <r>   -22.8455     0.0000    24.0000 </r>
       <r>   -22.6525     0.0000    24.0000 </r>
       <r>   -22.4595     0.0000    24.0000 </r>
       <r>   -22.2665     0.0000    24.0000 </r>
       <r>   -22.0735     0.0000    24.0000 </r>
       <r>   -21.8805     0.0000    24.0000 </r>
       <r>   -21.6875     0.0000    24.0000 </r>
       <r>   -21.4945     0.0000    24.0000 </r>
       <r>   -21.3015     0.0000    24.0000 </r>
       <r>   -21.1085     0.0000    24.0000 </r>
       <r>   -20.9155     0.0000    24.0000 </r>
       <r>   -20.7225     0.0000    24.0000 </r>
       <r>   -20.5295     0.0000    24.0000 </r>
       <r>   -20.3365     0.0000    24.0000 </r>
       <r>   -20.1435     0.0000    24.0000 </r>
       <r>   -19.9505     0.0000    24.0000 </r>
       <r>   -19.7575     0.0000    24.0000 </r>
       <r>   -19.5645     0.0000    24.0000 </r>
       <r>   -19.3715     0.0000    24.0000 </r>
       <r>   -19.1785     0.0000    24.0000 </r>
       <r>   -18.9855     0.0000    24.0000 </r>
       <r>   -18.7925     0.0000    24.0000 </r>
       <r>   -18.5996     0.0000    24.0000 </r>
       <r>   -18.4066     0.0000    24.0000 </r>
       <r>   -18.2136     0.0000    24.0000 </r>
       <r>   -18.0206     0.0000    24.0000 </r>
       <r>   -17.8276     0.0000    24.0000 </r>
       <r>   -17.6346     0.0000    24.0000 </r>
       <r>   -17.4416     0.0000    24.0000 </r>
       <r>   -17.2486     0.0000    24.0000 </r>
       <r>   -17.0556     0.0000    24.0000 </r>
       <r>   -16.8626     0.0000    24.0000 </r>
       <r>   -16.6696     0.0000    24.0000 </r>
       <r>   -16.4766     0.0000    24.0000 </r>
       <r>   -16.2836     0.0000    24.0000 </r>
       <r>   -16.0906     0.0000    24.0000 </r>
       <r>   -15.8976     0.0000    24.0000 </r>
       <r>   -15.7046     0.0000    24.0000 </r>
       <r>   -15.5116     0.0000    24.0000 </r>
       <r>   -15.3186     0.0000    24.0000 </r>
       <r>   -15.1256     0.0000    24.0000 </r>
       <r>   -14.9326     0.0000    24.0000 </r>
       <r>   -14.7396     0.0000    24.0000 </r>
       <r>   -14.5466     0.0000    24.0000 </r>
       <r>   -14.3536     0.0000    24.0000 </r>
       <r>   -14.1606     0.0000    24.0000 </r>
       <r>   -13.9676     0.0000    24.0000 </r>
       <r>   -13.7746     0.0000    24.0000 </r>
       <r>   -13.5816     0.0000    24.0000 </r>
       <r>   -13.3886     0.0000    24.0000 </r>
       <r>   -13.1956     0.0000    24.0000 </r>
       <r>   -13.0026     2.8893    24.5576 </r>
       <r>   -12.8096    17.8364    28.0000 </r>
       <r>   -12.6166     6.1544    29.1878 </r>
       <r>   -12.4236    14.4573    31.9780 </r>
       <r>   -12.2307     0.1140    32.0000 </r>
       <r>   -12.0377     0.0000    32.0000 </r>
       <r>   -11.8447     0.0000    32.0000 </r>
       <r>   -11.6517     0.0000    32.0000 </r>
       <r>   -11.4587     0.0000    32.0000 </r>
       <r>   -11.2657     0.0000    32.0000 </r>
       <r>   -11.0727     0.0000    32.0000 </r>
       <r>   -10.8797     0.0000    32.0000 </r>
       <r>   -10.6867     0.0000    32.0000 </r>
       <r>   -10.4937     0.0000    32.0000 </r>
       <r>   -10.3007     0.0312    32.0060 </r>
       <r>   -10.1077    16.0158    35.0970 </r>
       <r>    -9.9147    30.1960    40.9248 </r>
       <r>    -9.7217    15.8996    44.0000 </r>
       <r>    -9.5287     0.0000    44.0000 </r>
       <r>    -9.3357     0.0000    44.0000 </r>
       <r>    -9.1427     0.0000    44.0000 </r>
       <r>    -8.9497     0.0000    44.0000 </r>
       <r>    -8.7567     0.0000    44.0000 </r>
       <r>    -8.5637     0.0000    44.0000 </r>
       <r>    -8.3707     0.8624    44.1664 </r>
       <r>    -8.1777    19.8549    47.9984 </r>
       <r>    -7.9847     0.0000    48.0000 </r>
       <r>    -7.7917     0.0000    48.0000 </r>
       <r>    -7.5987     0.0000    48.0000 </r>
       <r>    -7.4057     0.0000    48.0000 </r>
       <r>    -7.2127     0.0000    48.0000 </r>
       <r>    -7.0197     0.0000    48.0000 </r>
       <r>    -6.8267     0.0000    48.0000 </r>
       <r>    -6.6337     0.0000    48.0000 </r>
       <r>    -6.4407     0.0000    48.0000 </r>
       <r>    -6.2477     0.0000    48.0000 </r>
       <r>    -6.0547     4.8942    48.9446 </r>
       <r>    -5.8618     0.2872    49.0000 </r>
       <r>    -5.6688     3.1609    49.6100 </r>
       <r>    -5.4758    12.3827    51.9999 </r>
       <r>    -5.2828     0.0000    52.0000 </r>
       <r>    -5.0898     0.0000    52.0000 </r>
       <r>    -4.8968     0.0000    52.0000 </r>
       <r>    -4.7038     0.0000    52.0000 </r>
       <r>    -4.5108     0.0000    52.0000 </r>
       <r>    -4.3178     0.0000    52.0000 </r>
       <r>    -4.1248     0.0000    52.0000 </r>
       <r>    -3.9318     0.0000    52.0000 </r>
       <r>    -3.7388     0.0000    52.0000 </r>
       <r>    -3.5458     0.0000    52.0000 </r>
       <r>    -3.3528     0.0000    52.0000 </r>
       <r>    -3.1598     9.6155    53.8558 </r>
       <r>    -2.9668     5.9288    55.0000 </r>
       <r>    -2.7738     5.0357    55.9719 </r>
       <r>    -2.5808    10.4880    57.9996 </r>
       <r>    -2.3878    14.3653    60.7726 </r>
       <r>    -2.1948    16.5521    63.9682 </r>
       <r>    -2.0018     0.1463    64.0000 </r>
       <r>    -1.8088     0.0000    64.0000 </r>
       <r>    -1.6158     0.0055    64.0011 </r>
       <r>    -1.4228    15.3098    66.9558 </r>
       <r>    -1.2298    21.0134    71.0114 </r>
       <r>    -1.0368    18.0885    74.5026 </r>
       <r>    -0.8438     7.7585    76.0000 </r>
       <r>    -0.6508     0.0000    76.0000 </r>
       <r>    -0.4578    13.3248    78.5716 </r>
       <r>    -0.2648    10.2058    80.5428 </r>
       <r>    -0.0718    11.1264    82.6944 </r>
       <r>     0.1212    30.0189    88.4891 </r>
       <r>     0.3142    23.8993    93.1027 </r>
       <r>     0.5071    14.9776    95.9947 </r>
       <r>     0.7001     0.0424    96.0032 </r>
       <r>     0.8931    12.8451    98.4823 </r>
       <r>     1.0861    23.5498   103.0274 </r>
       <r>     1.2791    19.9264   106.8737 </r>
       <r>     1.4721    30.6277   112.7864 </r>
       <r>     1.6651    26.5809   117.9199 </r>
       <r>     1.8581    10.7694   119.9996 </r>
       <r>     2.0511     0.0000   120.0000 </r>
       <r>     2.2441     0.0000   120.0000 </r>
       <r>     2.4371     0.0000   120.0000 </r>
       <r>     2.6301     0.0000   120.0000 </r>
       <r>     2.8231     0.0000   120.0000 </r>
       <r>     3.0161     0.0000   120.0000 </r>
       <r>     3.2091     0.0000   120.0000 </r>
       <r>     3.4021     0.0000   120.0000 </r>
       <r>     3.5951     0.0000   120.0000 </r>
       <r>     3.7881     0.0000   120.0000 </r>
       <r>     3.9811     0.0000   120.0000 </r>
       <r>     4.1741     0.0000   120.0000 </r>
       <r>     4.3671     0.0000   120.0000 </r>
       <r>     4.5601     5.1813   121.0000 </r>
       <r>     4.7531     0.0000   121.0000 </r>
       <r>     4.9461     0.0000   121.0000 </r>
       <r>     5.1391     0.0000   121.0000 </r>
       <r>     5.3321     6.9978   122.3506 </r>
       <r>     5.5251     8.5307   124.0000 </r>
       <r>     5.7181     0.0000   124.0000 </r>
       <r>     5.9111     0.0703   124.0136 </r>
       <r>     6.1041    15.5142   127.0078 </r>
       <r>     6.2971    15.0131   129.9079 </r>
       <r>     6.4901     1.3506   130.1701 </r>
       <r>     6.6831    13.5953   132.7939 </r>
       <r>     6.8760     8.8877   134.5118 </r>
       <r>     7.0690     7.7125   136.0004 </r>
       <r>     7.2620     5.1792   137.0000 </r>
       <r>     7.4550     4.6413   137.8958 </r>
       <r>     7.6480    10.7058   139.9629 </r>
       <r>     7.8410    12.5602   142.3892 </r>
       <r>     8.0340    11.2023   144.5513 </r>
       <r>     8.2270    13.4597   147.1495 </r>
       <r>     8.4200    16.2221   150.2809 </r>
       <r>     8.6130    12.6221   152.7171 </r>
       <r>     8.8060    16.3529   155.8756 </r>
       <r>     8.9990    17.9420   159.3394 </r>
       <r>     9.1920    15.7029   162.3703 </r>
       <r>     9.3850    18.1503   165.8753 </r>
       <r>     9.5780    18.2476   169.4043 </r>
       <r>     9.7710    18.8242   173.0420 </r>
       <r>     9.9640    12.4307   175.4417 </r>
       <r>    10.1570     2.8928   176.0000 </r>
       <r>    10.3500     0.0000   176.0000 </r>
       <r>    10.5430     0.0000   176.0000 </r>
       <r>    10.7360     0.0000   176.0000 </r>
       <r>    10.9290     0.0000   176.0000 </r>
       <r>    11.1220     0.0000   176.0000 </r>
       <r>    11.3150     0.0000   176.0000 </r>
       <r>    11.5080     0.0000   176.0000 </r>
       <r>    11.7010     0.0000   176.0000 </r>
       <r>    11.8940     0.0000   176.0000 </r>
       <r>    12.0870     0.0000   176.0000 </r>
       <r>    12.2800     0.0000   176.0000 </r>
       <r>    12.4730     0.0000   176.0000 </r>
       <r>    12.6660     0.0000   176.0000 </r>
      </set>
     </set>
    </array>
   </total>
  </dos>
 </calculation>
 <structure name="finalpos" >
  <crystal>
   <varray name="basis" >
    <v>       9.64947454       0.00000000       0.00000000 </v>
    <v>       0.00000000       9.64947454       0.00000000 </v>
    <v>       0.00000000       0.00000000       9.64947454 </v>
   </varray>
   <i name="volume">    898.48533701 </i>
   <varray name="rec_basis" >
    <v>       0.10363259       0.00000000       0.00000000 </v>
    <v>       0.00000000       0.10363259       0.00000000 </v>
    <v>       0.00000000       0.00000000       0.10363259 </v>
   </varray>
  </crystal>
  <varray name="positions" >
   <v>       0.96578835       0.32073191       0.34294380 </v>
   <v>       0.98736029       0.69779191       0.71723135 </v>
   <v>       0.02919981       0.34620638       0.71295239 </v>
   <v>       0.03268326       0.84429182       0.21594077 </v>
   <v>       0.19272105       0.19410632       0.99875197 </v>
   <v>       0.21987929       0.80428170       0.01770464 </v>
   <v>       0.83822309       0.18178370       0.04675654 </v>
   <v>       0.82848384       0.81952665       0.96292552 </v>
   <v>       0.32606157       0.95867073       0.34812728 </v>
   <v>       0.18770862       0.01604846       0.79020971 </v>
   <v>       0.72920104       0.98652499       0.71569923 </v>
   <v>       0.67736342       0.02488137       0.30687523 </v>
   <v>       0.17981677       0.66438893       0.45956953 </v>
   <v>       0.24392633       0.24156821       0.53081404 </v>
   <v>       0.80419622       0.66923988       0.52173324 </v>
   <v>       0.70528347       0.22639544       0.49334824 </v>
   <v>       0.33703348       0.46327791       0.83013989 </v>
   <v>       0.28986084       0.51786959       0.19683774 </v>
   <v>       0.71699839       0.48773308       0.21240722 </v>
   <v>       0.67572536       0.54430826       0.84295245 </v>
   <v>       0.47233225       0.18896030       0.71288869 </v>
   <v>       0.48263281       0.70929440       0.18490407 </v>
   <v>       0.52408911       0.29124578       0.17892084 </v>
   <v>       0.52727256       0.79905283       0.65749886 </v>
   <v>       0.49109075       0.50067487       0.50722715 </v>
   <v>       0.50906779       0.99952925       0.99890707 </v>
   <v>       0.99988253       0.50453355       0.01469906 </v>
   <v>       0.99908612       0.00039573       0.50087217 </v>
   <v>       0.13140596       0.87058596       0.60629180 </v>
   <v>       0.11808883       0.11296361       0.36476235 </v>
   <v>       0.86330038       0.88028412       0.39153594 </v>
   <v>       0.89809974       0.13694932       0.62971374 </v>
   <v>       0.89000726       0.64259986       0.13187734 </v>
   <v>       0.86726013       0.38741319       0.89712625 </v>
   <v>       0.13657923       0.60894072       0.88875489 </v>
   <v>       0.10681613       0.37181067       0.14204352 </v>
   <v>       0.63238865       0.13647221       0.89305285 </v>
   <v>       0.64017916       0.87784803       0.11392251 </v>
   <v>       0.37943032       0.10034398       0.13480991 </v>
   <v>       0.39412910       0.88267671       0.86339681 </v>
   <v>       0.60805536       0.63168856       0.38626184 </v>
   <v>       0.61271627       0.39143927       0.64396030 </v>
   <v>       0.36095235       0.61665319       0.62754577 </v>
   <v>       0.38148102       0.37081214       0.37948129 </v>
   <v>       0.75390438       0.75164227       0.74548740 </v>
   <v>       0.74766594       0.25371778       0.26105844 </v>
   <v>       0.25487759       0.74935811       0.24746010 </v>
   <v>       0.24587158       0.24755720       0.76761602 </v>
   <v>       0.02443925       0.98696257       0.99610241 </v>
   <v>       0.99623001       0.50699659       0.52110347 </v>
   <v>       0.52615610       0.02262053       0.52061532 </v>
   <v>       0.49966460       0.50100886       0.03546238 </v>
  </varray>
 </structure>
</modeling>
