unknown system                          
           1
     9.649475    0.000000    0.000000
     0.000000    9.649475    0.000000
     0.000000    0.000000    9.649475
   Li   P    S    Cl
    24     4    20     4
Direct configuration=     1
   0.96578945  0.32073064  0.34294723
   0.98735808  0.69779396  0.71723390
   0.02920258  0.34620553  0.71294490
   0.03267958  0.84427580  0.21593733
   0.19271973  0.19410909  0.99875132
   0.21988088  0.80428058  0.01770535
   0.83822281  0.18178934  0.04675647
   0.82847547  0.81953226  0.96292497
   0.32606225  0.95867383  0.34811229
   0.18770538  0.01604971  0.79021214
   0.72920358  0.98652369  0.71569075
   0.67736977  0.02488185  0.30687504
   0.17982036  0.66439328  0.45957339
   0.24394107  0.24155298  0.53081615
   0.80419585  0.66924617  0.52173340
   0.70528050  0.22639753  0.49334689
   0.33702991  0.46327787  0.83013928
   0.28985670  0.51786907  0.19683870
   0.71700062  0.48773187  0.21241193
   0.67572786  0.54430675  0.84295180
   0.47233406  0.18895954  0.71289647
   0.48263212  0.70928991  0.18490756
   0.52408848  0.29124889  0.17893152
   0.52726970  0.79905542  0.65750575
   0.49108950  0.50067342  0.50722519
   0.50907401  0.99953641  0.99891016
   0.99988218  0.50452432  0.01469887
   0.99908607  0.00039355  0.50086649
   0.13140192  0.87058947  0.60629361
   0.11809122  0.11296348  0.36476561
   0.86330791  0.88028827  0.39153564
   0.89809888  0.13695149  0.62970776
   0.89000327  0.64259459  0.13186558
   0.86726399  0.38741176  0.89712027
   0.13657777  0.60894043  0.88875616
   0.10681148  0.37181297  0.14204188
   0.63239138  0.13646123  0.89305419
   0.64017114  0.87784939  0.11392499
   0.37943414  0.10035012  0.13480298
   0.39412551  0.88267951  0.86339607
   0.60805560  0.63168442  0.38626437
   0.61271250  0.39143787  0.64396035
   0.36095517  0.61665425  0.62754687
   0.38147945  0.37081842  0.37948702
   0.75390229  0.75164276  0.74548729
   0.74766678  0.25371818  0.26105940
   0.25487712  0.74935701  0.24745961
   0.24587192  0.24755611  0.76761586
   0.02444067  0.98695938  0.99610379
   0.99622853  0.50700459  0.52110409
   0.52615801  0.02262369  0.52061531
   0.49966255  0.50100673  0.03546739
Direct configuration=     2
   0.96578923  0.32073089  0.34294669
   0.98735862  0.69779358  0.71723349
   0.02920207  0.34620570  0.71294637
   0.03268039  0.84427884  0.21593793
   0.19272003  0.19410847  0.99875138
   0.21988067  0.80428077  0.01770501
   0.83822291  0.18178826  0.04675646
   0.82847717  0.81953113  0.96292506
   0.32606210  0.95867323  0.34811525
   0.18770613  0.01604936  0.79021169
   0.72920311  0.98652394  0.71569240
   0.67736854  0.02488181  0.30687516
   0.17981975  0.66439254  0.45957281
   0.24393818  0.24155589  0.53081590
   0.80419592  0.66924493  0.52173348
   0.70528117  0.22639712  0.49334734
   0.33703056  0.46327803  0.83013936
   0.28985756  0.51786933  0.19683849
   0.71700022  0.48773220  0.21241104
   0.67572737  0.54430708  0.84295192
   0.47233366  0.18895969  0.71289498
   0.48263220  0.70929081  0.18490688
   0.52408862  0.29124832  0.17892950
   0.52727013  0.79905490  0.65750458
   0.49108994  0.50067486  0.50722751
   0.50907037  0.99953271  0.99890807
   0.99988252  0.50452782  0.01469737
   0.99908709  0.00039521  0.50086953
   0.13140259  0.87058888  0.60629298
   0.11809096  0.11296375  0.36476451
   0.86330505  0.88028636  0.39153467
   0.89809941  0.13695066  0.62970844
   0.89000385  0.64259575  0.13186815
   0.86726288  0.38741165  0.89712138
   0.13657752  0.60893980  0.88875659
   0.10681302  0.37181140  0.14204324
   0.63239208  0.13646479  0.89305320
   0.64017342  0.87784866  0.11392504
   0.37943294  0.10034925  0.13480498
   0.39412752  0.88268022  0.86339766
   0.60805577  0.63168550  0.38626363
   0.61271316  0.39143830  0.64396026
   0.36095510  0.61665362  0.62754622
   0.38147901  0.37081620  0.37948490
   0.75390256  0.75164262  0.74548737
   0.74766679  0.25371808  0.26105907
   0.25487723  0.74935729  0.24745994
   0.24587184  0.24755647  0.76761603
   0.02443974  0.98696082  0.99610343
   0.99622874  0.50700219  0.52110354
   0.52615708  0.02262261  0.52061499
   0.49966321  0.50100711  0.03546548
Direct configuration=     3
   0.96578915  0.32073097  0.34294650
   0.98735882  0.69779344  0.71723333
   0.02920189  0.34620576  0.71294689
   0.03268068  0.84427993  0.21593815
   0.19272014  0.19410826  0.99875139
   0.21988059  0.80428083  0.01770488
   0.83822294  0.18178788  0.04675646
   0.82847778  0.81953072  0.96292510
   0.32606204  0.95867302  0.34811631
   0.18770639  0.01604923  0.79021153
   0.72920294  0.98652403  0.71569299
   0.67736810  0.02488180  0.30687520
   0.17981953  0.66439227  0.45957260
   0.24393714  0.24155694  0.53081580
   0.80419595  0.66924449  0.52173352
   0.70528141  0.22639697  0.49334750
   0.33703079  0.46327809  0.83013939
   0.28985787  0.51786943  0.19683841
   0.71700007  0.48773232  0.21241071
   0.67572720  0.54430720  0.84295196
   0.47233351  0.18895975  0.71289445
   0.48263222  0.70929113  0.18490664
   0.52408867  0.29124812  0.17892877
   0.52727029  0.79905472  0.65750416
   0.49109010  0.50067538  0.50722834
   0.50906906  0.99953139  0.99890732
   0.99988265  0.50452908  0.01469683
   0.99908746  0.00039581  0.50087062
   0.13140283  0.87058866  0.60629275
   0.11809087  0.11296385  0.36476411
   0.86330402  0.88028567  0.39153433
   0.89809961  0.13695036  0.62970869
   0.89000406  0.64259616  0.13186907
   0.86726249  0.38741161  0.89712178
   0.13657743  0.60893958  0.88875675
   0.10681358  0.37181084  0.14204372
   0.63239233  0.13646607  0.89305285
   0.64017424  0.87784840  0.11392506
   0.37943252  0.10034894  0.13480570
   0.39412824  0.88268048  0.86339823
   0.60805583  0.63168588  0.38626337
   0.61271340  0.39143845  0.64396023
   0.36095508  0.61665339  0.62754598
   0.38147886  0.37081541  0.37948414
   0.75390266  0.75164257  0.74548740
   0.74766680  0.25371804  0.26105895
   0.25487727  0.74935739  0.24746006
   0.24587181  0.24755660  0.76761608
   0.02443941  0.98696134  0.99610331
   0.99622881  0.50700133  0.52110335
   0.52615675  0.02262222  0.52061488
   0.49966345  0.50100724  0.03546480
Direct configuration=     4
   0.96578899  0.32073115  0.34294612
   0.98735921  0.69779316  0.71723303
   0.02920153  0.34620588  0.71294795
   0.03268127  0.84428211  0.21593858
   0.19272036  0.19410782  0.99875143
   0.21988044  0.80428097  0.01770463
   0.83822301  0.18178710  0.04675645
   0.82847899  0.81952991  0.96292517
   0.32606193  0.95867259  0.34811844
   0.18770693  0.01604898  0.79021121
   0.72920261  0.98652420  0.71569417
   0.67736722  0.02488177  0.30687528
   0.17981909  0.66439174  0.45957219
   0.24393507  0.24155902  0.53081562
   0.80419601  0.66924361  0.52173358
   0.70528188  0.22639668  0.49334781
   0.33703125  0.46327821  0.83013945
   0.28985850  0.51786962  0.19683826
   0.71699978  0.48773256  0.21241007
   0.67572685  0.54430743  0.84295204
   0.47233322  0.18895986  0.71289337
   0.48263228  0.70929177  0.18490615
   0.52408878  0.29124771  0.17892732
   0.52727060  0.79905435  0.65750332
   0.49109042  0.50067641  0.50723000
   0.50906645  0.99952874  0.99890582
   0.99988289  0.50453159  0.01469575
   0.99908819  0.00039700  0.50087279
   0.13140331  0.87058823  0.60629230
   0.11809069  0.11296404  0.36476332
   0.86330197  0.88028429  0.39153364
   0.89809999  0.13694977  0.62970917
   0.89000449  0.64259699  0.13187092
   0.86726169  0.38741154  0.89712258
   0.13657725  0.60893913  0.88875705
   0.10681468  0.37180971  0.14204470
   0.63239283  0.13646862  0.89305214
   0.64017588  0.87784788  0.11392510
   0.37943166  0.10034832  0.13480714
   0.39412967  0.88268099  0.86339937
   0.60805596  0.63168666  0.38626284
   0.61271387  0.39143875  0.64396017
   0.36095503  0.61665294  0.62754552
   0.38147855  0.37081382  0.37948262
   0.75390285  0.75164246  0.74548746
   0.74766681  0.25371797  0.26105872
   0.25487734  0.74935760  0.24746030
   0.24587175  0.24755685  0.76761620
   0.02443874  0.98696237  0.99610305
   0.99622896  0.50699960  0.52110296
   0.52615609  0.02262145  0.52061465
   0.49966392  0.50100752  0.03546343
Direct configuration=     5
   0.96578869  0.32073150  0.34294504
   0.98735971  0.69779258  0.71723225
   0.02920073  0.34620611  0.71295001
   0.03268220  0.84428663  0.21593960
   0.19272068  0.19410712  0.99875168
   0.21987990  0.80428131  0.01770464
   0.83822305  0.18178552  0.04675649
   0.82848125  0.81952839  0.96292533
   0.32606176  0.95867173  0.34812255
   0.18770772  0.01604874  0.79021051
   0.72920188  0.98652457  0.71569653
   0.67736545  0.02488158  0.30687525
   0.17981801  0.66439043  0.45957095
   0.24393100  0.24156330  0.53081489
   0.80419610  0.66924187  0.52173342
   0.70528262  0.22639610  0.49334801
   0.33703229  0.46327807  0.83013965
   0.28985959  0.51786960  0.19683802
   0.71699913  0.48773280  0.21240874
   0.67572616  0.54430782  0.84295223
   0.47233277  0.18896006  0.71289119
   0.48263253  0.70929299  0.18490518
   0.52408893  0.29124681  0.17892431
   0.52727151  0.79905364  0.65750125
   0.49109057  0.50067570  0.50722867
   0.50906707  0.99952897  0.99890640
   0.99988272  0.50453250  0.01469729
   0.99908723  0.00039641  0.50087251
   0.13140454  0.87058717  0.60629207
   0.11808983  0.11296384  0.36476287
   0.86330123  0.88028421  0.39153471
   0.89809988  0.13694956  0.62971130
   0.89000577  0.64259832  0.13187391
   0.86726096  0.38741231  0.89712429
   0.13657817  0.60893987  0.88875605
   0.10681536  0.37181016  0.14204415
   0.63239089  0.13647029  0.89305247
   0.64017741  0.87784795  0.11392390
   0.37943104  0.10034630  0.13480843
   0.39412941  0.88267900  0.86339818
   0.60805568  0.63168754  0.38626237
   0.61271499  0.39143899  0.64396023
   0.36095378  0.61665305  0.62754563
   0.38147970  0.37081303  0.37948200
   0.75390356  0.75164237  0.74548743
   0.74766641  0.25371788  0.26105859
   0.25487746  0.74935784  0.24746020
   0.24587167  0.24755702  0.76761612
   0.02443898  0.98696246  0.99610275
   0.99622945  0.50699820  0.52110320
   0.52615609  0.02262102  0.52061496
   0.49966424  0.50100814  0.03546294
Direct configuration=     6
   0.96578835  0.32073191  0.34294380
   0.98736029  0.69779191  0.71723135
   0.02919981  0.34620638  0.71295239
   0.03268326  0.84429182  0.21594077
   0.19272105  0.19410632  0.99875197
   0.21987929  0.80428170  0.01770464
   0.83822309  0.18178370  0.04675654
   0.82848384  0.81952665  0.96292552
   0.32606157  0.95867073  0.34812728
   0.18770862  0.01604846  0.79020971
   0.72920104  0.98652499  0.71569923
   0.67736342  0.02488137  0.30687523
   0.17981677  0.66438893  0.45956953
   0.24392633  0.24156821  0.53081404
   0.80419622  0.66923988  0.52173324
   0.70528347  0.22639544  0.49334824
   0.33703348  0.46327791  0.83013989
   0.28986084  0.51786959  0.19683774
   0.71699839  0.48773308  0.21240722
   0.67572536  0.54430826  0.84295245
   0.47233225  0.18896030  0.71288869
   0.48263281  0.70929440  0.18490407
   0.52408911  0.29124578  0.17892084
   0.52727256  0.79905283  0.65749886
   0.49109075  0.50067487  0.50722715
   0.50906779  0.99952925  0.99890707
   0.99988253  0.50453355  0.01469906
   0.99908612  0.00039573  0.50087217
   0.13140596  0.87058596  0.60629180
   0.11808883  0.11296361  0.36476235
   0.86330038  0.88028412  0.39153594
   0.89809974  0.13694932  0.62971374
   0.89000726  0.64259986  0.13187734
   0.86726013  0.38741319  0.89712625
   0.13657923  0.60894072  0.88875489
   0.10681613  0.37181067  0.14204352
   0.63238865  0.13647221  0.89305285
   0.64017916  0.87784803  0.11392251
   0.37943032  0.10034398  0.13480991
   0.39412910  0.88267671  0.86339681
   0.60805536  0.63168856  0.38626184
   0.61271627  0.39143927  0.64396030
   0.36095235  0.61665319  0.62754577
   0.38148102  0.37081214  0.37948129
   0.75390438  0.75164227  0.74548740
   0.74766594  0.25371778  0.26105844
   0.25487759  0.74935811  0.24746010
   0.24587158  0.24755720  0.76761602
   0.02443925  0.98696257  0.99610241
   0.99623001  0.50699659  0.52110347
   0.52615610  0.02262053  0.52061532
   0.49966460  0.50100886  0.03546238
