  52  52   0   4
  0.1749467E+02  0.9689538E-09  0.9689538E-09  0.9689538E-09  0.2000000E-15
  1.000000000000000E-004
  CAR 
 unknown system                          
     12.49798981    -45.25814425  301      1.95749535      1.00000000
    -45.258  0.0000E+00  0.0000E+00  0.0000E+00  0.0000E+00
    -45.066  0.0000E+00  0.0000E+00  0.0000E+00  0.0000E+00
    -44.873  0.0000E+00  0.0000E+00  0.0000E+00  0.0000E+00
    -44.681  0.0000E+00  0.0000E+00  0.0000E+00  0.0000E+00
    -44.488  0.0000E+00  0.0000E+00  0.0000E+00  0.0000E+00
    -44.296  0.0000E+00  0.0000E+00  0.0000E+00  0.0000E+00
    -44.103  0.0000E+00  0.0000E+00  0.0000E+00  0.0000E+00
    -43.911  0.0000E+00  0.0000E+00  0.0000E+00  0.0000E+00
    -43.718  0.0000E+00  0.0000E+00  0.0000E+00  0.0000E+00
    -43.525  0.0000E+00  0.0000E+00  0.0000E+00  0.0000E+00
    -43.333  0.0000E+00  0.0000E+00  0.0000E+00  0.0000E+00
    -43.140  0.0000E+00  0.0000E+00  0.0000E+00  0.0000E+00
    -42.948  0.0000E+00  0.0000E+00  0.0000E+00  0.0000E+00
    -42.755  0.1995E-10  0.1995E-10  0.3840E-11  0.3840E-11
    -42.563  0.2104E-01  0.2104E-01  0.4050E-02  0.4050E-02
    -42.370  0.8871E-01  0.8871E-01  0.2113E-01  0.2113E-01
    -42.178  0.1490E-01  0.1490E-01  0.2400E-01  0.2400E-01
    -41.985  0.0000E+00  0.0000E+00  0.2400E-01  0.2400E-01
    -41.793  0.0000E+00  0.0000E+00  0.2400E-01  0.2400E-01
    -41.600  0.0000E+00  0.0000E+00  0.2400E-01  0.2400E-01
    -41.408  0.0000E+00  0.0000E+00  0.2400E-01  0.2400E-01
    -41.215  0.0000E+00  0.0000E+00  0.2400E-01  0.2400E-01
    -41.023  0.0000E+00  0.0000E+00  0.2400E-01  0.2400E-01
    -40.830  0.0000E+00  0.0000E+00  0.2400E-01  0.2400E-01
    -40.638  0.0000E+00  0.0000E+00  0.2400E-01  0.2400E-01
    -40.445  0.0000E+00  0.0000E+00  0.2400E-01  0.2400E-01
    -40.253  0.0000E+00  0.0000E+00  0.2400E-01  0.2400E-01
    -40.060  0.0000E+00  0.0000E+00  0.2400E-01  0.2400E-01
    -39.868  0.0000E+00  0.0000E+00  0.2400E-01  0.2400E-01
    -39.675  0.0000E+00  0.0000E+00  0.2400E-01  0.2400E-01
    -39.483  0.0000E+00  0.0000E+00  0.2400E-01  0.2400E-01
    -39.290  0.0000E+00  0.0000E+00  0.2400E-01  0.2400E-01
    -39.097  0.0000E+00  0.0000E+00  0.2400E-01  0.2400E-01
    -38.905  0.0000E+00  0.0000E+00  0.2400E-01  0.2400E-01
    -38.712  0.0000E+00  0.0000E+00  0.2400E-01  0.2400E-01
    -38.520  0.0000E+00  0.0000E+00  0.2400E-01  0.2400E-01
    -38.327  0.0000E+00  0.0000E+00  0.2400E-01  0.2400E-01
    -38.135  0.0000E+00  0.0000E+00  0.2400E-01  0.2400E-01
    -37.942  0.0000E+00  0.0000E+00  0.2400E-01  0.2400E-01
    -37.750  0.0000E+00  0.0000E+00  0.2400E-01  0.2400E-01
    -37.557  0.0000E+00  0.0000E+00  0.2400E-01  0.2400E-01
    -37.365  0.0000E+00  0.0000E+00  0.2400E-01  0.2400E-01
    -37.172  0.0000E+00  0.0000E+00  0.2400E-01  0.2400E-01
    -36.980  0.0000E+00  0.0000E+00  0.2400E-01  0.2400E-01
    -36.787  0.0000E+00  0.0000E+00  0.2400E-01  0.2400E-01
    -36.595  0.0000E+00  0.0000E+00  0.2400E-01  0.2400E-01
    -36.402  0.0000E+00  0.0000E+00  0.2400E-01  0.2400E-01
    -36.210  0.0000E+00  0.0000E+00  0.2400E-01  0.2400E-01
    -36.017  0.0000E+00  0.0000E+00  0.2400E-01  0.2400E-01
    -35.825  0.0000E+00  0.0000E+00  0.2400E-01  0.2400E-01
    -35.632  0.0000E+00  0.0000E+00  0.2400E-01  0.2400E-01
    -35.440  0.0000E+00  0.0000E+00  0.2400E-01  0.2400E-01
    -35.247  0.0000E+00  0.0000E+00  0.2400E-01  0.2400E-01
    -35.055  0.0000E+00  0.0000E+00  0.2400E-01  0.2400E-01
    -34.862  0.0000E+00  0.0000E+00  0.2400E-01  0.2400E-01
    -34.670  0.0000E+00  0.0000E+00  0.2400E-01  0.2400E-01
    -34.477  0.0000E+00  0.0000E+00  0.2400E-01  0.2400E-01
    -34.284  0.0000E+00  0.0000E+00  0.2400E-01  0.2400E-01
    -34.092  0.0000E+00  0.0000E+00  0.2400E-01  0.2400E-01
    -33.899  0.0000E+00  0.0000E+00  0.2400E-01  0.2400E-01
    -33.707  0.0000E+00  0.0000E+00  0.2400E-01  0.2400E-01
    -33.514  0.0000E+00  0.0000E+00  0.2400E-01  0.2400E-01
    -33.322  0.0000E+00  0.0000E+00  0.2400E-01  0.2400E-01
    -33.129  0.0000E+00  0.0000E+00  0.2400E-01  0.2400E-01
    -32.937  0.0000E+00  0.0000E+00  0.2400E-01  0.2400E-01
    -32.744  0.0000E+00  0.0000E+00  0.2400E-01  0.2400E-01
    -32.552  0.0000E+00  0.0000E+00  0.2400E-01  0.2400E-01
    -32.359  0.0000E+00  0.0000E+00  0.2400E-01  0.2400E-01
    -32.167  0.0000E+00  0.0000E+00  0.2400E-01  0.2400E-01
    -31.974  0.0000E+00  0.0000E+00  0.2400E-01  0.2400E-01
    -31.782  0.0000E+00  0.0000E+00  0.2400E-01  0.2400E-01
    -31.589  0.0000E+00  0.0000E+00  0.2400E-01  0.2400E-01
    -31.397  0.0000E+00  0.0000E+00  0.2400E-01  0.2400E-01
    -31.204  0.0000E+00  0.0000E+00  0.2400E-01  0.2400E-01
    -31.012  0.0000E+00  0.0000E+00  0.2400E-01  0.2400E-01
    -30.819  0.0000E+00  0.0000E+00  0.2400E-01  0.2400E-01
    -30.627  0.0000E+00  0.0000E+00  0.2400E-01  0.2400E-01
    -30.434  0.0000E+00  0.0000E+00  0.2400E-01  0.2400E-01
    -30.242  0.0000E+00  0.0000E+00  0.2400E-01  0.2400E-01
    -30.049  0.0000E+00  0.0000E+00  0.2400E-01  0.2400E-01
    -29.857  0.0000E+00  0.0000E+00  0.2400E-01  0.2400E-01
    -29.664  0.0000E+00  0.0000E+00  0.2400E-01  0.2400E-01
    -29.471  0.0000E+00  0.0000E+00  0.2400E-01  0.2400E-01
    -29.279  0.0000E+00  0.0000E+00  0.2400E-01  0.2400E-01
    -29.086  0.0000E+00  0.0000E+00  0.2400E-01  0.2400E-01
    -28.894  0.0000E+00  0.0000E+00  0.2400E-01  0.2400E-01
    -28.701  0.0000E+00  0.0000E+00  0.2400E-01  0.2400E-01
    -28.509  0.0000E+00  0.0000E+00  0.2400E-01  0.2400E-01
    -28.316  0.0000E+00  0.0000E+00  0.2400E-01  0.2400E-01
    -28.124  0.0000E+00  0.0000E+00  0.2400E-01  0.2400E-01
    -27.931  0.0000E+00  0.0000E+00  0.2400E-01  0.2400E-01
    -27.739  0.0000E+00  0.0000E+00  0.2400E-01  0.2400E-01
    -27.546  0.0000E+00  0.0000E+00  0.2400E-01  0.2400E-01
    -27.354  0.0000E+00  0.0000E+00  0.2400E-01  0.2400E-01
    -27.161  0.0000E+00  0.0000E+00  0.2400E-01  0.2400E-01
    -26.969  0.0000E+00  0.0000E+00  0.2400E-01  0.2400E-01
    -26.776  0.0000E+00  0.0000E+00  0.2400E-01  0.2400E-01
    -26.584  0.0000E+00  0.0000E+00  0.2400E-01  0.2400E-01
    -26.391  0.0000E+00  0.0000E+00  0.2400E-01  0.2400E-01
    -26.199  0.0000E+00  0.0000E+00  0.2400E-01  0.2400E-01
    -26.006  0.0000E+00  0.0000E+00  0.2400E-01  0.2400E-01
    -25.814  0.0000E+00  0.0000E+00  0.2400E-01  0.2400E-01
    -25.621  0.0000E+00  0.0000E+00  0.2400E-01  0.2400E-01
    -25.429  0.0000E+00  0.0000E+00  0.2400E-01  0.2400E-01
    -25.236  0.0000E+00  0.0000E+00  0.2400E-01  0.2400E-01
    -25.043  0.0000E+00  0.0000E+00  0.2400E-01  0.2400E-01
    -24.851  0.0000E+00  0.0000E+00  0.2400E-01  0.2400E-01
    -24.658  0.0000E+00  0.0000E+00  0.2400E-01  0.2400E-01
    -24.466  0.0000E+00  0.0000E+00  0.2400E-01  0.2400E-01
    -24.273  0.0000E+00  0.0000E+00  0.2400E-01  0.2400E-01
    -24.081  0.0000E+00  0.0000E+00  0.2400E-01  0.2400E-01
    -23.888  0.0000E+00  0.0000E+00  0.2400E-01  0.2400E-01
    -23.696  0.0000E+00  0.0000E+00  0.2400E-01  0.2400E-01
    -23.503  0.0000E+00  0.0000E+00  0.2400E-01  0.2400E-01
    -23.311  0.0000E+00  0.0000E+00  0.2400E-01  0.2400E-01
    -23.118  0.0000E+00  0.0000E+00  0.2400E-01  0.2400E-01
    -22.926  0.0000E+00  0.0000E+00  0.2400E-01  0.2400E-01
    -22.733  0.0000E+00  0.0000E+00  0.2400E-01  0.2400E-01
    -22.541  0.0000E+00  0.0000E+00  0.2400E-01  0.2400E-01
    -22.348  0.0000E+00  0.0000E+00  0.2400E-01  0.2400E-01
    -22.156  0.0000E+00  0.0000E+00  0.2400E-01  0.2400E-01
    -21.963  0.0000E+00  0.0000E+00  0.2400E-01  0.2400E-01
    -21.771  0.0000E+00  0.0000E+00  0.2400E-01  0.2400E-01
    -21.578  0.0000E+00  0.0000E+00  0.2400E-01  0.2400E-01
    -21.386  0.0000E+00  0.0000E+00  0.2400E-01  0.2400E-01
    -21.193  0.0000E+00  0.0000E+00  0.2400E-01  0.2400E-01
    -21.001  0.0000E+00  0.0000E+00  0.2400E-01  0.2400E-01
    -20.808  0.0000E+00  0.0000E+00  0.2400E-01  0.2400E-01
    -20.616  0.0000E+00  0.0000E+00  0.2400E-01  0.2400E-01
    -20.423  0.0000E+00  0.0000E+00  0.2400E-01  0.2400E-01
    -20.230  0.0000E+00  0.0000E+00  0.2400E-01  0.2400E-01
    -20.038  0.0000E+00  0.0000E+00  0.2400E-01  0.2400E-01
    -19.845  0.0000E+00  0.0000E+00  0.2400E-01  0.2400E-01
    -19.653  0.0000E+00  0.0000E+00  0.2400E-01  0.2400E-01
    -19.460  0.0000E+00  0.0000E+00  0.2400E-01  0.2400E-01
    -19.268  0.0000E+00  0.0000E+00  0.2400E-01  0.2400E-01
    -19.075  0.0000E+00  0.0000E+00  0.2400E-01  0.2400E-01
    -18.883  0.0000E+00  0.0000E+00  0.2400E-01  0.2400E-01
    -18.690  0.0000E+00  0.0000E+00  0.2400E-01  0.2400E-01
    -18.498  0.0000E+00  0.0000E+00  0.2400E-01  0.2400E-01
    -18.305  0.0000E+00  0.0000E+00  0.2400E-01  0.2400E-01
    -18.113  0.0000E+00  0.0000E+00  0.2400E-01  0.2400E-01
    -17.920  0.0000E+00  0.0000E+00  0.2400E-01  0.2400E-01
    -17.728  0.0000E+00  0.0000E+00  0.2400E-01  0.2400E-01
    -17.535  0.0000E+00  0.0000E+00  0.2400E-01  0.2400E-01
    -17.343  0.0000E+00  0.0000E+00  0.2400E-01  0.2400E-01
    -17.150  0.0000E+00  0.0000E+00  0.2400E-01  0.2400E-01
    -16.958  0.0000E+00  0.0000E+00  0.2400E-01  0.2400E-01
    -16.765  0.0000E+00  0.0000E+00  0.2400E-01  0.2400E-01
    -16.573  0.0000E+00  0.0000E+00  0.2400E-01  0.2400E-01
    -16.380  0.0000E+00  0.0000E+00  0.2400E-01  0.2400E-01
    -16.188  0.0000E+00  0.0000E+00  0.2400E-01  0.2400E-01
    -15.995  0.0000E+00  0.0000E+00  0.2400E-01  0.2400E-01
    -15.803  0.0000E+00  0.0000E+00  0.2400E-01  0.2400E-01
    -15.610  0.0000E+00  0.0000E+00  0.2400E-01  0.2400E-01
    -15.417  0.0000E+00  0.0000E+00  0.2400E-01  0.2400E-01
    -15.225  0.0000E+00  0.0000E+00  0.2400E-01  0.2400E-01
    -15.032  0.0000E+00  0.0000E+00  0.2400E-01  0.2400E-01
    -14.840  0.0000E+00  0.0000E+00  0.2400E-01  0.2400E-01
    -14.647  0.0000E+00  0.0000E+00  0.2400E-01  0.2400E-01
    -14.455  0.0000E+00  0.0000E+00  0.2400E-01  0.2400E-01
    -14.262  0.0000E+00  0.0000E+00  0.2400E-01  0.2400E-01
    -14.070  0.0000E+00  0.0000E+00  0.2400E-01  0.2400E-01
    -13.877  0.0000E+00  0.0000E+00  0.2400E-01  0.2400E-01
    -13.685  0.0000E+00  0.0000E+00  0.2400E-01  0.2400E-01
    -13.492  0.0000E+00  0.0000E+00  0.2400E-01  0.2400E-01
    -13.300  0.0000E+00  0.0000E+00  0.2400E-01  0.2400E-01
    -13.107  0.3544E-02  0.3544E-02  0.2468E-01  0.2468E-01
    -12.915  0.1723E-01  0.1723E-01  0.2800E-01  0.2800E-01
    -12.722  0.4501E-03  0.4501E-03  0.2809E-01  0.2809E-01
    -12.530  0.9945E-02  0.9945E-02  0.3000E-01  0.3000E-01
    -12.337  0.1038E-01  0.1038E-01  0.3200E-01  0.3200E-01
    -12.145  0.0000E+00  0.0000E+00  0.3200E-01  0.3200E-01
    -11.952  0.0000E+00  0.0000E+00  0.3200E-01  0.3200E-01
    -11.760  0.0000E+00  0.0000E+00  0.3200E-01  0.3200E-01
    -11.567  0.0000E+00  0.0000E+00  0.3200E-01  0.3200E-01
    -11.375  0.0000E+00  0.0000E+00  0.3200E-01  0.3200E-01
    -11.182  0.0000E+00  0.0000E+00  0.3200E-01  0.3200E-01
    -10.990  0.0000E+00  0.0000E+00  0.3200E-01  0.3200E-01
    -10.797  0.0000E+00  0.0000E+00  0.3200E-01  0.3200E-01
    -10.604  0.0000E+00  0.0000E+00  0.3200E-01  0.3200E-01
    -10.412  0.1003E-03  0.1003E-03  0.3202E-01  0.3202E-01
    -10.219  0.1674E-01  0.1674E-01  0.3524E-01  0.3524E-01
    -10.027  0.2760E-01  0.2760E-01  0.4056E-01  0.4056E-01
     -9.834  0.1783E-01  0.1783E-01  0.4400E-01  0.4400E-01
     -9.642  0.0000E+00  0.0000E+00  0.4400E-01  0.4400E-01
     -9.449  0.0000E+00  0.0000E+00  0.4400E-01  0.4400E-01
     -9.257  0.0000E+00  0.0000E+00  0.4400E-01  0.4400E-01
     -9.064  0.0000E+00  0.0000E+00  0.4400E-01  0.4400E-01
     -8.872  0.0000E+00  0.0000E+00  0.4400E-01  0.4400E-01
     -8.679  0.0000E+00  0.0000E+00  0.4400E-01  0.4400E-01
     -8.487  0.3235E-02  0.3235E-02  0.4462E-01  0.4462E-01
     -8.294  0.1754E-01  0.1754E-01  0.4800E-01  0.4800E-01
     -8.102  0.0000E+00  0.0000E+00  0.4800E-01  0.4800E-01
     -7.909  0.0000E+00  0.0000E+00  0.4800E-01  0.4800E-01
     -7.717  0.0000E+00  0.0000E+00  0.4800E-01  0.4800E-01
     -7.524  0.0000E+00  0.0000E+00  0.4800E-01  0.4800E-01
     -7.332  0.0000E+00  0.0000E+00  0.4800E-01  0.4800E-01
     -7.139  0.0000E+00  0.0000E+00  0.4800E-01  0.4800E-01
     -6.947  0.0000E+00  0.0000E+00  0.4800E-01  0.4800E-01
     -6.754  0.0000E+00  0.0000E+00  0.4800E-01  0.4800E-01
     -6.562  0.0000E+00  0.0000E+00  0.4800E-01  0.4800E-01
     -6.369  0.1889E-15  0.1889E-15  0.4800E-01  0.4800E-01
     -6.176  0.4342E-02  0.4342E-02  0.4884E-01  0.4884E-01
     -5.984  0.8527E-03  0.8527E-03  0.4900E-01  0.4900E-01
     -5.791  0.3108E-02  0.3108E-02  0.4960E-01  0.4960E-01
     -5.599  0.1247E-01  0.1247E-01  0.5200E-01  0.5200E-01
     -5.406  0.0000E+00  0.0000E+00  0.5200E-01  0.5200E-01
     -5.214  0.0000E+00  0.0000E+00  0.5200E-01  0.5200E-01
     -5.021  0.0000E+00  0.0000E+00  0.5200E-01  0.5200E-01
     -4.829  0.0000E+00  0.0000E+00  0.5200E-01  0.5200E-01
     -4.636  0.0000E+00  0.0000E+00  0.5200E-01  0.5200E-01
     -4.444  0.0000E+00  0.0000E+00  0.5200E-01  0.5200E-01
     -4.251  0.0000E+00  0.0000E+00  0.5200E-01  0.5200E-01
     -4.059  0.0000E+00  0.0000E+00  0.5200E-01  0.5200E-01
     -3.866  0.0000E+00  0.0000E+00  0.5200E-01  0.5200E-01
     -3.674  0.0000E+00  0.0000E+00  0.5200E-01  0.5200E-01
     -3.481  0.2285E-16  0.2285E-16  0.5200E-01  0.5200E-01
     -3.289  0.5234E-02  0.5234E-02  0.5301E-01  0.5301E-01
     -3.096  0.1035E-01  0.1035E-01  0.5500E-01  0.5500E-01
     -2.904  0.3739E-02  0.3739E-02  0.5572E-01  0.5572E-01
     -2.711  0.1050E-01  0.1050E-01  0.5774E-01  0.5774E-01
     -2.519  0.1268E-01  0.1268E-01  0.6018E-01  0.6018E-01
     -2.326  0.1981E-01  0.1981E-01  0.6400E-01  0.6400E-01
     -2.134  0.0000E+00  0.0000E+00  0.6400E-01  0.6400E-01
     -1.941  0.0000E+00  0.0000E+00  0.6400E-01  0.6400E-01
     -1.749  0.5987E-09  0.5988E-09  0.6400E-01  0.6400E-01
     -1.556  0.5689E-02  0.5689E-02  0.6510E-01  0.6510E-01
     -1.363  0.1776E-01  0.1776E-01  0.6852E-01  0.6852E-01
     -1.171  0.1777E-01  0.1777E-01  0.7194E-01  0.7194E-01
     -0.978  0.1607E-01  0.1607E-01  0.7503E-01  0.7503E-01
     -0.786  0.5013E-02  0.5013E-02  0.7600E-01  0.7600E-01
     -0.593  0.6311E-02  0.6311E-02  0.7721E-01  0.7721E-01
     -0.401  0.1139E-01  0.1139E-01  0.7941E-01  0.7941E-01
     -0.208  0.1094E-01  0.1094E-01  0.8151E-01  0.8151E-01
     -0.016  0.3158E-01  0.3158E-01  0.8759E-01  0.8759E-01
      0.177  0.2371E-01  0.2371E-01  0.9216E-01  0.9216E-01
      0.369  0.1567E-01  0.1567E-01  0.9518E-01  0.9518E-01
      0.562  0.4248E-02  0.4248E-02  0.9600E-01  0.9600E-01
      0.754  0.8988E-02  0.8988E-02  0.9773E-01  0.9773E-01
      0.947  0.2415E-01  0.2415E-01  0.1024E+00  0.1024E+00
      1.139  0.2291E-01  0.2291E-01  0.1068E+00  0.1068E+00
      1.332  0.3261E-01  0.3261E-01  0.1131E+00  0.1131E+00
      1.524  0.2821E-01  0.2821E-01  0.1185E+00  0.1185E+00
      1.717  0.7525E-02  0.7525E-02  0.1200E+00  0.1200E+00
      1.909  0.2189E-03  0.2189E-03  0.1200E+00  0.1200E+00
      2.102  0.0000E+00  0.0000E+00  0.1200E+00  0.1200E+00
      2.294  0.0000E+00  0.0000E+00  0.1200E+00  0.1200E+00
      2.487  0.0000E+00  0.0000E+00  0.1200E+00  0.1200E+00
      2.679  0.0000E+00  0.0000E+00  0.1200E+00  0.1200E+00
      2.872  0.0000E+00  0.0000E+00  0.1200E+00  0.1200E+00
      3.064  0.0000E+00  0.0000E+00  0.1200E+00  0.1200E+00
      3.257  0.0000E+00  0.0000E+00  0.1200E+00  0.1200E+00
      3.450  0.0000E+00  0.0000E+00  0.1200E+00  0.1200E+00
      3.642  0.0000E+00  0.0000E+00  0.1200E+00  0.1200E+00
      3.835  0.0000E+00  0.0000E+00  0.1200E+00  0.1200E+00
      4.027  0.0000E+00  0.0000E+00  0.1200E+00  0.1200E+00
      4.220  0.9779E-07  0.9781E-07  0.1200E+00  0.1200E+00
      4.412  0.5189E-02  0.5189E-02  0.1210E+00  0.1210E+00
      4.605  0.0000E+00  0.0000E+00  0.1210E+00  0.1210E+00
      4.797  0.0000E+00  0.0000E+00  0.1210E+00  0.1210E+00
      4.990  0.3361E-12  0.3362E-12  0.1210E+00  0.1210E+00
      5.182  0.4789E-02  0.4789E-02  0.1219E+00  0.1219E+00
      5.375  0.1079E-01  0.1079E-01  0.1240E+00  0.1240E+00
      5.567  0.0000E+00  0.0000E+00  0.1240E+00  0.1240E+00
      5.760  0.6727E-04  0.6728E-04  0.1240E+00  0.1240E+00
      5.952  0.1109E-01  0.1109E-01  0.1261E+00  0.1261E+00
      6.145  0.1664E-01  0.1664E-01  0.1294E+00  0.1294E+00
      6.337  0.3544E-02  0.3544E-02  0.1300E+00  0.1300E+00
      6.530  0.1184E-01  0.1184E-01  0.1323E+00  0.1323E+00
      6.722  0.6814E-02  0.6814E-02  0.1336E+00  0.1336E+00
      6.915  0.1229E-01  0.1229E-01  0.1360E+00  0.1360E+00
      7.107  0.5165E-02  0.5165E-02  0.1370E+00  0.1370E+00
      7.300  0.2836E-02  0.2836E-02  0.1375E+00  0.1375E+00
      7.492  0.1072E-01  0.1072E-01  0.1396E+00  0.1396E+00
      7.685  0.1300E-01  0.1300E-01  0.1421E+00  0.1421E+00
      7.877  0.9473E-02  0.9472E-02  0.1439E+00  0.1439E+00
      8.070  0.1517E-01  0.1517E-01  0.1469E+00  0.1469E+00
      8.263  0.1482E-01  0.1482E-01  0.1497E+00  0.1497E+00
      8.455  0.1549E-01  0.1549E-01  0.1527E+00  0.1527E+00
      8.648  0.1272E-01  0.1272E-01  0.1551E+00  0.1551E+00
      8.840  0.1503E-01  0.1503E-01  0.1580E+00  0.1580E+00
      9.033  0.2129E-01  0.2129E-01  0.1621E+00  0.1621E+00
      9.225  0.1699E-01  0.1704E-01  0.1654E+00  0.1654E+00
      9.418  0.1724E-01  0.1707E-01  0.1687E+00  0.1687E+00
      9.610  0.1609E-01  0.1716E-01  0.1718E+00  0.1720E+00
      9.803  0.1501E-01  0.1551E-01  0.1747E+00  0.1750E+00
      9.995  0.6583E-02  0.5159E-02  0.1760E+00  0.1760E+00
     10.188  0.0000E+00  0.0000E+00  0.1760E+00  0.1760E+00
     10.380  0.0000E+00  0.0000E+00  0.1760E+00  0.1760E+00
     10.573  0.0000E+00  0.0000E+00  0.1760E+00  0.1760E+00
     10.765  0.0000E+00  0.0000E+00  0.1760E+00  0.1760E+00
     10.958  0.0000E+00  0.0000E+00  0.1760E+00  0.1760E+00
     11.150  0.0000E+00  0.0000E+00  0.1760E+00  0.1760E+00
     11.343  0.0000E+00  0.0000E+00  0.1760E+00  0.1760E+00
     11.535  0.0000E+00  0.0000E+00  0.1760E+00  0.1760E+00
     11.728  0.0000E+00  0.0000E+00  0.1760E+00  0.1760E+00
     11.920  0.0000E+00  0.0000E+00  0.1760E+00  0.1760E+00
     12.113  0.0000E+00  0.0000E+00  0.1760E+00  0.1760E+00
     12.305  0.0000E+00  0.0000E+00  0.1760E+00  0.1760E+00
     12.498  0.0000E+00  0.0000E+00  0.1760E+00  0.1760E+00
