       N       E                     dE             d eps       ncg     rms          rms(c)
DAV:   1     0.158747737848E+04    0.15875E+04   -0.11360E+05  2328   0.126E+03
DAV:   2    -0.577135124204E+02   -0.16452E+04   -0.15470E+04  2864   0.360E+02
DAV:   3    -0.229109782384E+03   -0.17140E+03   -0.16942E+03  2864   0.116E+02
DAV:   4    -0.241754504812E+03   -0.12645E+02   -0.12621E+02  3568   0.325E+01
DAV:   5    -0.241974629349E+03   -0.22012E+00   -0.22003E+00  3376   0.442E+00
DAV:   6    -0.241984082066E+03   -0.94527E-02   -0.94515E-02  3448   0.109E+00
DAV:   7    -0.241984542969E+03   -0.46090E-03   -0.46088E-03  3448   0.221E-01
DAV:   8    -0.241984573053E+03   -0.30084E-04   -0.30083E-04  3392   0.655E-02
DAV:   9    -0.241984575165E+03   -0.21122E-05   -0.21128E-05  3432   0.146E-02
DAV:  10    -0.241984575282E+03   -0.11704E-06   -0.11664E-06  1968   0.454E-03    0.647E+01
RMM:  11    -0.235198648752E+03    0.67859E+01   -0.48855E+01  2112   0.195E+01    0.332E+01
RMM:  12    -0.255862922573E+03   -0.20664E+02   -0.22987E+01  2216   0.137E+01    0.206E+01
RMM:  13    -0.258359639097E+03   -0.24967E+01   -0.87542E+00  2183   0.535E+00    0.708E+00
RMM:  14    -0.258546761061E+03   -0.18712E+00   -0.19926E+00  2766   0.336E+00    0.321E+00
RMM:  15    -0.258516373878E+03    0.30387E-01   -0.35023E-01  2296   0.165E+00    0.666E-01
RMM:  16    -0.258536942772E+03   -0.20569E-01   -0.10735E-01  2323   0.890E-01    0.308E-01
RMM:  17    -0.258542832027E+03   -0.58893E-02   -0.25874E-02  2595   0.454E-01    0.176E-01
RMM:  18    -0.258544140337E+03   -0.13083E-02   -0.69173E-03  2511   0.207E-01    0.901E-02
RMM:  19    -0.258544625955E+03   -0.48562E-03   -0.20346E-03  2951   0.112E-01    0.440E-02
RMM:  20    -0.258544719476E+03   -0.93521E-04   -0.48852E-04  2847   0.481E-02    0.252E-02
RMM:  21    -0.258544738067E+03   -0.18591E-04   -0.14810E-04  2533   0.279E-02    0.100E-02
RMM:  22    -0.258544744561E+03   -0.64942E-05   -0.51742E-05  2833   0.156E-02    0.609E-03
RMM:  23    -0.258544744396E+03    0.16534E-06   -0.14350E-05  2237   0.827E-03    0.278E-03
RMM:  24    -0.258544743722E+03    0.67451E-06   -0.50540E-06  1684   0.608E-03
   1 F= -.27199003E+03 E0= -.27199003E+03  d E =-.271990E+03  mag=    -0.0004
       N       E                     dE             d eps       ncg     rms          rms(c)
DAV:   1    -0.258544744668E+03   -0.27163E-06   -0.49003E-05  2392   0.138E-02    0.175E-03
RMM:   2    -0.258544744831E+03   -0.16336E-06   -0.17254E-06  1460   0.492E-03
   2 F= -.27199004E+03 E0= -.27199004E+03  d E =-.119479E-05  mag=    -0.0001
       N       E                     dE             d eps       ncg     rms          rms(c)
DAV:   1    -0.258544745260E+03   -0.59238E-06   -0.37354E-05  2312   0.119E-02    0.891E-04
RMM:   2    -0.258544745288E+03   -0.27481E-07   -0.14035E-06  1414   0.467E-03
   3 F= -.27199004E+03 E0= -.27199004E+03  d E =-.172468E-05  mag=    -0.0000
       N       E                     dE             d eps       ncg     rms          rms(c)
DAV:   1    -0.258544745647E+03   -0.38670E-06   -0.14040E-04  2568   0.220E-02    0.151E-03
RMM:   2    -0.258544745944E+03   -0.29738E-06   -0.49268E-06  1637   0.836E-03
   4 F= -.27199004E+03 E0= -.27199004E+03  d E =-.253823E-05  mag=    -0.0000
