 vasp.6.4.1 05Apr23 (build Jun 07 2023 15:38:11) complex                        
  
 executed on             LinuxIFC date 2023.10.16  22:24:36
 running  128 mpi-ranks, with    1 threads/rank, on    1 nodes
 distrk:  each k-point on  128 cores,    1 groups
 distr:  one band on NCORE=  32 cores,    4 groups


--------------------------------------------------------------------------------------------------------


 INCAR:
   GGA = PE
   PREC = Accu
   EDIFF = 1.e-6
   EDIFFG = -1.e-3
   ENCUT = 520.
   NELM = 100
   NELMDL = -10
   LASPH = .TRUE.
   LREAL = Auto
   LMAXMIX = 4
   ISPIN = 2
   LDIAG = .TRUE.
   LPLANE = .TRUE.
   IVDW = 12
   SIGMA = 0.03
   ISMEAR = 0
   NSW = 1000    number of steps for IOM
   IBRION = 2    ionic relax: 0-MD 1-quasi-New 2-CG
   ISIF = 2    ionic relaxation + stress tensor calcn.
   LCHARG = .FALSE.
   LWAVE = .FALSE.
   ALGO = F
   KPAR = 1
   NPAR = 4
   POTIM = 0.2

 POTCAR:    PAW_PBE Li_sv_GW 25Mar2010            
 POTCAR:    PAW_PBE P_GW 19Mar2012                
 POTCAR:    PAW_PBE S_GW 19Mar2012                
 POTCAR:    PAW_PBE Cl_GW 19Mar2012               
 -----------------------------------------------------------------------------
|                                                                             |
|           W    W    AA    RRRRR   N    N  II  N    N   GGGG   !!!           |
|           W    W   A  A   R    R  NN   N  II  NN   N  G    G  !!!           |
|           W    W  A    A  R    R  N N  N  II  N N  N  G       !!!           |
|           W WW W  AAAAAA  RRRRR   N  N N  II  N  N N  G  GGG   !            |
|           WW  WW  A    A  R   R   N   NN  II  N   NN  G    G                |
|           W    W  A    A  R    R  N    N  II  N    N   GGGG   !!!           |
|                                                                             |
|     You use a magnetic or noncollinear calculation, but did not specify     |
|     the initial magnetic moment with the MAGMOM tag. Note that a            |
|     default of 1 will be used for all atoms. This ferromagnetic setup       |
|     may break the symmetry of the crystal, in particular it may rule        |
|     out finding an antiferromagnetic solution. Thence, we recommend         |
|     setting the initial magnetic moment manually or verifying carefully     |
|     that this magnetic setup is desired.                                    |
|                                                                             |
 -----------------------------------------------------------------------------

 POTCAR:    PAW_PBE Li_sv_GW 25Mar2010            
   SHA256 =  24a6ace15a582615486b36ce4dc781b048409f4015b7684ed1273ae395fa2fdc Li_sv_GW/POTCAR       
   COPYR  = (c) Copyright 25Mar2010 Georg Kresse                                                    
   COPYR  = This file is part of the software VASP. Any use, copying, and all other rights are regul
   COPYR  = If you do not have a valid VASP license, you may not use, copy or distribute this file. 
   VRHFIN =Li: 1s2s                                                                                 
   LEXCH  = PE                                                                                      
   EATOM  =   200.9989 eV,   14.7730 Ry                                                             
                                                                                                    
   TITEL  = PAW_PBE Li_sv_GW 25Mar2010                                                              
   LULTRA =        F    use ultrasoft PP ?                                                          
   IUNSCR =        0    unscreen: 0-lin 1-nonlin 2-no                                               
   RPACOR =    0.000    partial core radius                                                         
   POMASS =    7.010; ZVAL   =    3.000    mass and valenz                                          
   RCORE  =    1.500    outmost cutoff radius                                                       
   RWIGS  =    1.600; RWIGS  =    0.847    wigner-seitz radius (au A)                               
   ENMAX  =  433.699; ENMIN  =  325.274 eV                                                          
   RCLOC  =    1.003    cutoff for local pot                                                        
   LCOR   =        T    correct aug charges                                                         
   LPAW   =        T    paw PP                                                                      
   EAUG   = 1041.699                                                                                
   RMAX   =    1.536    core radius for proj-oper                                                   
   RAUG   =    1.300    factor for augmentation sphere                                              
   RDEP   =    1.520    radius for radial grids                                                     
   RDEPT  =    1.300    core radius for aug-charge                                                  
                                                                                                    
   Atomic configuration                                                                             
    4 entries                                                                                       
     n  l   j            E        occ.                                                              
     1  0  0.50       -53.3604   2.0000                                                             
     1  0  0.50       -52.0001   0.0000                                                             
     2  1  0.50        -1.5636   1.0000                                                             
     3  2  1.50        -1.3606   0.0000                                                             
   Description                                                                                      
     l       E           TYP  RCUT    TYP  RCUT                                                     
     0    -53.3603633     23  1.200                                                                 
     0    -52.0001064     23  1.200                                                                 
     0    176.8757380     23  1.300                                                                 
     1     -1.5635925     23  1.500                                                                 
     1    108.8466080     23  1.500                                                                 
     2     81.6349560     23  1.500                                                                 
  local pseudopotential read in
  kinetic energy density of atom read in
  atomic valenz-charges read in
  non local Contribution for L=           0  read in
    real space projection operators read in
  non local Contribution for L=           0  read in
    real space projection operators read in
  non local Contribution for L=           0  read in
    real space projection operators read in
  non local Contribution for L=           1  read in
    real space projection operators read in
  non local Contribution for L=           1  read in
    real space projection operators read in
  non local Contribution for L=           2  read in
    real space projection operators read in
    PAW grid and wavefunctions read in
 
   number of l-projection  operators is LMAX  =           6
   number of lm-projection operators is LMMAX =          14
 
 POTCAR:    PAW_PBE P_GW 19Mar2012                
   SHA256 =  715c28f2291d37b61637ce89646c59f66f71c8b8d8bfba631e5feb9f7b42defe P_GW/POTCAR           
   COPYR  = (c) Copyright 19Mar2012 Georg Kresse                                                    
   COPYR  = This file is part of the software VASP. Any use, copying, and all other rights are regul
   COPYR  = If you do not have a valid VASP license, you may not use, copy or distribute this file. 
   VRHFIN =P : s2p3                                                                                 
   LEXCH  = PE                                                                                      
   EATOM  =   176.0430 eV,   12.9388 Ry                                                             
                                                                                                    
   TITEL  = PAW_PBE P_GW 19Mar2012                                                                  
   LULTRA =        F    use ultrasoft PP ?                                                          
   IUNSCR =        1    unscreen: 0-lin 1-nonlin 2-no                                               
   RPACOR =    1.400    partial core radius                                                         
   POMASS =   30.974; ZVAL   =    5.000    mass and valenz                                          
   RCORE  =    2.000    outmost cutoff radius                                                       
   RWIGS  =    1.900; RWIGS  =    1.005    wigner-seitz radius (au A)                               
   ENMAX  =  255.040; ENMIN  =  191.280 eV                                                          
   ICORE  =        3    local potential                                                             
   LCOR   =        T    correct aug charges                                                         
   LPAW   =        T    paw PP                                                                      
   EAUG   =  499.732                                                                                
   DEXC   =    0.000                                                                                
   RMAX   =    2.047    core radius for proj-oper                                                   
   RAUG   =    1.300    factor for augmentation sphere                                              
   RDEP   =    2.059    radius for radial grids                                                     
   RDEPT  =    1.900    core radius for aug-charge                                                  
                                                                                                    
   Atomic configuration                                                                             
    7 entries                                                                                       
     n  l   j            E        occ.                                                              
     1  0  0.50     -2084.0982   2.0000                                                             
     2  0  0.50      -173.9859   2.0000                                                             
     2  1  1.50      -124.4865   6.0000                                                             
     3  0  0.50       -13.9692   2.0000                                                             
     3  1  0.50        -5.5067   3.0000                                                             
     3  2  1.50        -6.8029   0.0000                                                             
     4  3  2.50        -1.3606   0.0000                                                             
   Description                                                                                      
     l       E           TYP  RCUT    TYP  RCUT                                                     
     0    -13.9691528     23  1.900                                                                 
     0    102.0436950     23  1.900                                                                 
     1     -5.5066939     23  1.900                                                                 
     1    102.0436950     23  1.900                                                                 
     2     -8.1634956     23  2.000                                                                 
     2     81.6349560     23  2.000                                                                 
     3     27.2116520     23  2.000                                                                 
  local pseudopotential read in
  partial core-charges read in
  partial kinetic energy density read in
  kinetic energy density of atom read in
  atomic valenz-charges read in
  non local Contribution for L=           0  read in
    real space projection operators read in
  non local Contribution for L=           0  read in
    real space projection operators read in
  non local Contribution for L=           1  read in
    real space projection operators read in
  non local Contribution for L=           1  read in
    real space projection operators read in
  non local Contribution for L=           2  read in
    real space projection operators read in
  non local Contribution for L=           2  read in
    real space projection operators read in
    PAW grid and wavefunctions read in
 
   number of l-projection  operators is LMAX  =           6
   number of lm-projection operators is LMMAX =          18
 
 POTCAR:    PAW_PBE S_GW 19Mar2012                
   SHA256 =  357db9cfb0783579b2eebe03197c2d807131fea8ea663b1fcfb6ce2fa75af011 S_GW/POTCAR           
   COPYR  = (c) Copyright 19Mar2012 Georg Kresse                                                    
   COPYR  = This file is part of the software VASP. Any use, copying, and all other rights are regul
   COPYR  = If you do not have a valid VASP license, you may not use, copy or distribute this file. 
   VRHFIN =S : s2p4                                                                                 
   LEXCH  = PE                                                                                      
   EATOM  =   276.8230 eV,   20.3459 Ry                                                             
                                                                                                    
   TITEL  = PAW_PBE S_GW 19Mar2012                                                                  
   LULTRA =        F    use ultrasoft PP ?                                                          
   IUNSCR =        1    unscreen: 0-lin 1-nonlin 2-no                                               
   RPACOR =    1.400    partial core radius                                                         
   POMASS =   32.066; ZVAL   =    6.000    mass and valenz                                          
   RCORE  =    1.900    outmost cutoff radius                                                       
   RWIGS  =    1.900; RWIGS  =    1.005    wigner-seitz radius (au A)                               
   ENMAX  =  258.689; ENMIN  =  194.016 eV                                                          
   ICORE  =        3    local potential                                                             
   LCOR   =        T    correct aug charges                                                         
   LPAW   =        T    paw PP                                                                      
   EAUG   =  488.319                                                                                
   DEXC   =    0.000                                                                                
   RMAX   =    1.942    core radius for proj-oper                                                   
   RAUG   =    1.300    factor for augmentation sphere                                              
   RDEP   =    1.954    radius for radial grids                                                     
   RDEPT  =    1.900    core radius for aug-charge                                                  
                                                                                                    
   Atomic configuration                                                                             
    7 entries                                                                                       
     n  l   j            E        occ.                                                              
     1  0  0.50     -2405.8406   2.0000                                                             
     2  0  0.50      -211.7007   2.0000                                                             
     2  1  1.50      -156.4958   6.0000                                                             
     3  0  0.50       -17.2562   2.0000                                                             
     3  1  0.50        -7.0085   4.0000                                                             
     3  2  1.50        -8.1635   0.0000                                                             
     4  3  2.50        -1.3606   0.0000                                                             
   Description                                                                                      
     l       E           TYP  RCUT    TYP  RCUT                                                     
     0    -17.2561639     23  1.700                                                                 
     0     88.4378690     23  1.900                                                                 
     1     -7.0085399     23  1.900                                                                 
     1     88.4378690     23  1.900                                                                 
     2    -10.8846608     23  1.900                                                                 
     2     54.4233040     23  1.900                                                                 
     3     27.2116520     23  1.800                                                                 
  local pseudopotential read in
  partial core-charges read in
  partial kinetic energy density read in
  kinetic energy density of atom read in
  atomic valenz-charges read in
  non local Contribution for L=           0  read in
    real space projection operators read in
  non local Contribution for L=           0  read in
    real space projection operators read in
  non local Contribution for L=           1  read in
    real space projection operators read in
  non local Contribution for L=           1  read in
    real space projection operators read in
  non local Contribution for L=           2  read in
    real space projection operators read in
  non local Contribution for L=           2  read in
    real space projection operators read in
    PAW grid and wavefunctions read in
 
   number of l-projection  operators is LMAX  =           6
   number of lm-projection operators is LMMAX =          18
 
 POTCAR:    PAW_PBE Cl_GW 19Mar2012               
   SHA256 =  3ef3b3169d6a9a89979f58b4cf17d927a58518fc660d8883d88cacaee8175441 Cl_GW/POTCAR          
   COPYR  = (c) Copyright 19Mar2012 Georg Kresse                                                    
   COPYR  = This file is part of the software VASP. Any use, copying, and all other rights are regul
   COPYR  = If you do not have a valid VASP license, you may not use, copy or distribute this file. 
   VRHFIN =Cl: s2p5                                                                                 
   LEXCH  = PE                                                                                      
   EATOM  =   409.7259 eV,   30.1140 Ry                                                             
                                                                                                    
   TITEL  = PAW_PBE Cl_GW 19Mar2012                                                                 
   LULTRA =        F    use ultrasoft PP ?                                                          
   IUNSCR =        1    unscreen: 0-lin 1-nonlin 2-no                                               
   RPACOR =    1.400    partial core radius                                                         
   POMASS =   35.453; ZVAL   =    7.000    mass and valenz                                          
   RCORE  =    1.900    outmost cutoff radius                                                       
   RWIGS  =    1.900; RWIGS  =    1.005    wigner-seitz radius (au A)                               
   ENMAX  =  262.472; ENMIN  =  196.854 eV                                                          
   ICORE  =        3    local potential                                                             
   LCOR   =        T    correct aug charges                                                         
   LPAW   =        T    paw PP                                                                      
   EAUG   =  456.703                                                                                
   DEXC   =    0.000                                                                                
   RMAX   =    1.945    core radius for proj-oper                                                   
   RAUG   =    1.300    factor for augmentation sphere                                              
   RDEP   =    2.020    radius for radial grids                                                     
   RDEPT  =    1.900    core radius for aug-charge                                                  
                                                                                                    
   Atomic configuration                                                                             
    7 entries                                                                                       
     n  l   j            E        occ.                                                              
     1  0  0.50     -2751.1850   2.0000                                                             
     2  0  0.50      -252.6861   2.0000                                                             
     2  1  1.50      -191.6157   6.0000                                                             
     3  0  0.50       -20.6916   2.0000                                                             
     3  1  0.50        -8.5949   5.0000                                                             
     3  2  1.50        -9.5241   0.0000                                                             
     4  3  2.50        -9.5241   0.0000                                                             
   Description                                                                                      
     l       E           TYP  RCUT    TYP  RCUT                                                     
     0    -20.6915657     23  1.700                                                                 
     0     95.2407820     23  1.800                                                                 
     1     -8.5948577     23  1.900                                                                 
     1     95.2407820     23  1.900                                                                 
     2    -10.8846608     23  1.900                                                                 
     2     54.4233040     23  1.900                                                                 
     3     27.2116520     23  1.900                                                                 
  local pseudopotential read in
  partial core-charges read in
  partial kinetic energy density read in
  kinetic energy density of atom read in
  atomic valenz-charges read in
  non local Contribution for L=           0  read in
    real space projection operators read in
  non local Contribution for L=           0  read in
    real space projection operators read in
  non local Contribution for L=           1  read in
    real space projection operators read in
  non local Contribution for L=           1  read in
    real space projection operators read in
  non local Contribution for L=           2  read in
    real space projection operators read in
  non local Contribution for L=           2  read in
    real space projection operators read in
    PAW grid and wavefunctions read in
 
   number of l-projection  operators is LMAX  =           6
   number of lm-projection operators is LMMAX =          18
 
 Optimization of the real space projectors (new method)

 maximal supplied QI-value         = 25.13
 optimisation between [QCUT,QGAM] = [ 11.56, 23.12] = [ 37.43,149.72] Ry 
 Optimized for a Real-space Cutoff    1.28 Angstroem

   l    n(q)    QCUT    max X(q) W(low)/X(q) W(high)/X(q)  e(spline) 
   0      9    11.561    87.733    0.11E-03    0.32E-04    0.56E-06
   0      9    11.561    82.800    0.11E-03    0.35E-04    0.56E-06
   0      9    11.561     2.509    0.22E-03    0.42E-04    0.79E-06
   1      8    11.561    12.580    0.94E-04    0.26E-03    0.21E-06
   1      8    11.561     1.319    0.33E-04    0.15E-03    0.19E-06
   2      8    11.561     1.993    0.36E-04    0.89E-04    0.26E-06
 Optimization of the real space projectors (new method)

 maximal supplied QI-value         = 18.90
 optimisation between [QCUT,QGAM] = [ 11.53, 23.24] = [ 37.21,151.29] Ry 
 Optimized for a Real-space Cutoff    1.21 Angstroem

   l    n(q)    QCUT    max X(q) W(low)/X(q) W(high)/X(q)  e(spline) 
   0      8    11.527     8.355    0.73E-04    0.70E-04    0.26E-07
   0      8    11.527     1.401    0.17E-03    0.17E-03    0.63E-07
   1      8    11.527     4.747    0.13E-03    0.17E-03    0.11E-06
   1      8    11.527     2.025    0.16E-03    0.18E-03    0.12E-06
   2      7    11.527     3.169    0.51E-04    0.25E-03    0.60E-07
   2      7    11.527     3.441    0.82E-04    0.22E-03    0.14E-06
 Optimization of the real space projectors (new method)

 maximal supplied QI-value         = 19.84
 optimisation between [QCUT,QGAM] = [ 11.51, 23.22] = [ 37.09,150.92] Ry 
 Optimized for a Real-space Cutoff    1.49 Angstroem

   l    n(q)    QCUT    max X(q) W(low)/X(q) W(high)/X(q)  e(spline) 
   0     10    11.508     7.541    0.34E-04    0.13E-04    0.69E-07
   0     10    11.508     1.809    0.49E-04    0.27E-04    0.14E-06
   1     10    11.508     4.107    0.27E-05    0.41E-05    0.14E-06
   1     10    11.508     2.196    0.26E-05    0.25E-05    0.22E-06
   2      9    11.508     4.265    0.18E-03    0.11E-03    0.81E-06
   2      9    11.508     1.925    0.97E-04    0.76E-04    0.47E-06
 Optimization of the real space projectors (new method)

 maximal supplied QI-value         = 19.84
 optimisation between [QCUT,QGAM] = [ 11.51, 23.22] = [ 37.09,150.92] Ry 
 Optimized for a Real-space Cutoff    1.21 Angstroem

   l    n(q)    QCUT    max X(q) W(low)/X(q) W(high)/X(q)  e(spline) 
   0      8    11.508     6.761    0.57E-04    0.57E-04    0.35E-07
   0      8    11.508     1.642    0.14E-03    0.14E-03    0.91E-07
   1      8    11.508     3.519    0.20E-04    0.72E-04    0.47E-07
   1      8    11.508     2.150    0.27E-04    0.11E-03    0.89E-07
   2      7    11.508     2.976    0.19E-03    0.33E-03    0.16E-06
   2      7    11.508     1.494    0.14E-03    0.29E-03    0.14E-06
  PAW_PBE Li_sv_GW 25Mar2010            :
 energy of atom  1       EATOM= -200.9989
 kinetic energy error for atom=    0.0127 (will be added to EATOM!!)
  PAW_PBE P_GW 19Mar2012                :
 energy of atom  2       EATOM= -176.0430
 kinetic energy error for atom=    0.0011 (will be added to EATOM!!)
  PAW_PBE S_GW 19Mar2012                :
 energy of atom  3       EATOM= -276.8230
 kinetic energy error for atom=    0.0024 (will be added to EATOM!!)
  PAW_PBE Cl_GW 19Mar2012               :
 energy of atom  4       EATOM= -409.7259
 kinetic energy error for atom=    0.0030 (will be added to EATOM!!)
 
 
 POSCAR: Li24 P4 S20 Cl4
  positions in direct lattice
  velocities in cartesian coordinates
 exchange correlation table for  LEXCH =        8
   RHO(1)=    0.500       N(1)  =     2000
   RHO(2)=  100.500       N(2)  =     4000

 VTST: version 4.1, (05/19/21)

 CHAIN: initializing optimizer
 
 OPT: Using VASP Conjugate-Gradient optimizer
 CHAIN: Read ICHAIN            0
 
 POSCAR: Li24 P4 S20 Cl4
  positions in direct lattice
  velocities in cartesian coordinates
 


--------------------------------------------------------------------------------------------------------


 ion  position               nearest neighbor table
   1  0.980  0.259  0.241-
   2  0.970  0.728  0.772-  45 2.22
   3  0.039  0.179  0.828-
   4  0.039  0.672  0.321-
   5  0.333  0.318  0.954-
   6  0.178  0.806  0.020-
   7  0.699  0.280  0.027-
   8  0.684  0.697  0.993-
   9  0.192  0.991  0.201-
  10  0.278  0.020  0.708-
  11  0.801  0.962  0.829-
  12  0.824  0.017  0.194-
  13  0.278  0.792  0.480-
  14  0.192  0.299  0.509-
  15  0.801  0.671  0.538-
  16  0.824  0.306  0.483-
  17  0.178  0.480  0.694-
  18  0.333  0.546  0.182-
  19  0.699  0.473  0.220-
  20  0.684  0.507  0.803-
  21  0.477  0.198  0.670-
  22  0.477  0.830  0.302-
  23  0.528  0.175  0.325-
  24  0.530  0.815  0.685-
  25  0.495  0.503  0.498-  43 2.04  44 2.05  41 2.05  42 2.06
  26  0.495  0.003  0.997-  40 2.04  39 2.05  37 2.05  38 2.06
  27  0.006  0.493  0.007-  33 2.05  34 2.05  36 2.05  35 2.06
  28  0.985  0.990  0.511-  32 2.04  31 2.04  29 2.06  30 2.07
  29  0.107  0.867  0.633-  28 2.06
  30  0.108  0.113  0.387-  28 2.07
  31  0.871  0.863  0.387-  28 2.04
  32  0.871  0.113  0.638-  28 2.04
  33  0.885  0.617  0.129-  27 2.05
  34  0.885  0.371  0.883-  27 2.05
  35  0.137  0.612  0.888-  27 2.06
  36  0.143  0.379  0.121-  27 2.05
  37  0.613  0.119  0.865-  26 2.05
  38  0.626  0.891  0.122-  26 2.06
  39  0.380  0.130  0.120-  26 2.05
  40  0.376  0.872  0.882-  26 2.04
  41  0.613  0.635  0.381-  25 2.05
  42  0.626  0.378  0.609-  25 2.06
  43  0.376  0.619  0.629-  25 2.04
  44  0.380  0.381  0.370-  25 2.05
  45  0.741  0.737  0.763-   2 2.22
  46  0.750  0.242  0.258-
  47  0.251  0.763  0.247-
  48  0.251  0.253  0.737-
  49  0.002  0.996  0.007-
  50  0.002  0.493  0.505-
  51  0.461  0.989  0.512-
  52  0.537  0.485  0.015-
 
  LATTYP: Found a simple cubic cell.
 ALAT       =     9.6895376890
  
  Lattice vectors:
  
 A1 = (   9.6895376890,   0.0000000000,   0.0000000000)
 A2 = (   0.0000000000,   9.6895376890,   0.0000000000)
 A3 = (   0.0000000000,   0.0000000000,   9.6895376890)


Analysis of symmetry for initial positions (statically):
=====================================================================
 Subroutine PRICEL returns:
 Original cell was already a primitive cell.
 

 Routine SETGRP: Setting up the symmetry group for a 
 simple cubic supercell.


 Subroutine GETGRP returns: Found  2 space group operations
 (whereof  1 operations were pure point group operations)
 out of a pool of 48 trial point group operations.


The static configuration has the point symmetry C_1 .
 The point group associated with its full space group is C_1h.


Analysis of symmetry for dynamics (positions and initial velocities):
=====================================================================
 Subroutine PRICEL returns:
 Original cell was already a primitive cell.
 

 Routine SETGRP: Setting up the symmetry group for a 
 simple cubic supercell.


 Subroutine GETGRP returns: Found  2 space group operations
 (whereof  1 operations were pure point group operations)
 out of a pool of 48 trial point group operations.


The dynamic configuration has the point symmetry C_1 .
 The point group associated with its full space group is C_1h.


Analysis of structural, dynamic, and magnetic symmetry:
=====================================================================
 Subroutine PRICEL returns:
 Original cell was already a primitive cell.
 

 Routine SETGRP: Setting up the symmetry group for a 
 simple cubic supercell.


 Subroutine GETGRP returns: Found  2 space group operations
 (whereof  1 operations were pure point group operations)
 out of a pool of 48 trial point group operations.


The overall configuration has the point symmetry C_1 .
 The point group associated with its full space group is C_1h.


 Subroutine INISYM returns: Found  2 space group operations
 (whereof  1 operations are pure point group operations),
 and found     1 'primitive' translations


----------------------------------------------------------------------------------------

                                     Primitive cell                                     

  volume of cell :     909.7230

  direct lattice vectors                    reciprocal lattice vectors
     9.689537689  0.000000000  0.000000000     0.103204098  0.000000000  0.000000000
     0.000000000  9.689537689  0.000000000     0.000000000  0.103204098  0.000000000
     0.000000000  0.000000000  9.689537689     0.000000000  0.000000000  0.103204098

  length of vectors
     9.689537689  9.689537689  9.689537689     0.103204098  0.103204098  0.103204098

  position of ions in fractional coordinates (direct lattice)
     0.980162313  0.259006977  0.241127429
     0.969554199  0.728385586  0.771748820
     0.038849106  0.178990045  0.827853647
     0.038849106  0.672280759  0.321144361
     0.332880979  0.317861473  0.954283328
     0.178015811  0.805870259  0.020118786
     0.698524127  0.280458744  0.026879363
     0.683991673  0.696714508  0.993456696
     0.191551830  0.990901272  0.201321580
     0.277544352  0.019636521  0.708155215
     0.801042703  0.962313457  0.829402776
     0.824138811  0.017247856  0.193718548
     0.277544352  0.791979191  0.480497885
     0.191551830  0.298812827  0.509233135
     0.801042703  0.670731630  0.537820949
     0.824138811  0.306415858  0.482886550
     0.178015811  0.480015620  0.694264147
     0.332880979  0.545851078  0.182272933
     0.698524127  0.473255043  0.219675662
     0.683991673  0.506677711  0.803419898
     0.476774634  0.198007654  0.669722751
     0.476774634  0.830411655  0.302126753
     0.527662403  0.175326395  0.324808011
     0.530259719  0.815291328  0.684843078
     0.495028915  0.503162889  0.497633777
     0.495028915  0.002500630  0.996971518
     0.005871892  0.493353051  0.006781356
     0.984692628  0.989569363  0.510565043
     0.107441182  0.866742107  0.633392299
     0.107812528  0.112704727  0.387429679
     0.871192371  0.862628748  0.386995800
     0.871192371  0.113138606  0.637505658
     0.885340003  0.616846564  0.129311336
     0.885340003  0.370823070  0.883287842
     0.136839903  0.611796269  0.888338137
     0.143163357  0.379440324  0.120694082
     0.613267238  0.118865084  0.864918339
     0.625659301  0.890933741  0.122228794
     0.379676949  0.130366176  0.119606939
     0.376331386  0.871615293  0.881612724
     0.613267238  0.635216068  0.381269322
     0.625659301  0.377905612  0.609200665
     0.376331386  0.618521682  0.628519113
     0.379676949  0.380527467  0.369768230
     0.740520961  0.736847523  0.763286884
     0.750160174  0.242086007  0.258048400
     0.251099329  0.762649508  0.246837674
     0.251099329  0.253296732  0.737484898
     0.002218713  0.995571404  0.007334196
     0.002218713  0.492800210  0.504563002
     0.461179945  0.988517969  0.511616437
     0.536853003  0.484959681  0.015174725

  ion indices of the primitive-cell ions
   primitive index   ion index
                 1           1
                 2           2
                 3           3
                 4           4
                 5           5
                 6           6
                 7           7
                 8           8
                 9           9
                10          10
                11          11
                12          12
                13          13
                14          14
                15          15
                16          16
                17          17
                18          18
                19          19
                20          20
                21          21
                22          22
                23          23
                24          24
                25          25
                26          26
                27          27
                28          28
                29          29
                30          30
                31          31
                32          32
                33          33
                34          34
                35          35
                36          36
                37          37
                38          38
                39          39
                40          40
                41          41
                42          42
                43          43
                44          44
                45          45
                46          46
                47          47
                48          48
                49          49
                50          50
                51          51
                52          52

----------------------------------------------------------------------------------------

 
 
 KPOINTS: Automatic mesh                          

Automatic generation of k-mesh.
 Grid dimensions read from file:
 generate k-points for:    2    2    2

 Generating k-lattice:

  Cartesian coordinates                     Fractional coordinates (reciprocal lattice)
     0.051602049  0.000000000  0.000000000     0.500000000  0.000000000  0.000000000
     0.000000000  0.051602049  0.000000000     0.000000000  0.500000000  0.000000000
     0.000000000  0.000000000  0.051602049     0.000000000  0.000000000  0.500000000

  Length of vectors
     0.051602049  0.051602049  0.051602049

  Shift w.r.t. Gamma in fractional coordinates (k-lattice)
     0.500000000  0.500000000  0.500000000

 
 Subroutine IBZKPT returns following result:
 ===========================================
 
 Found      3 irreducible k-points:
 
 Following reciprocal coordinates:
            Coordinates               Weight
  0.250000  0.250000  0.250000      4.000000
 -0.250000 -0.250000  0.250000      2.000000
  0.250000 -0.250000  0.250000      2.000000
 
 Following cartesian coordinates:
            Coordinates               Weight
  0.025801  0.025801  0.025801      4.000000
 -0.025801 -0.025801  0.025801      2.000000
  0.025801 -0.025801  0.025801      2.000000
 


--------------------------------------------------------------------------------------------------------




 Dimension of arrays:
   k-points           NKPTS =      3   k-points in BZ     NKDIM =      3   number of bands    NBANDS=    176
   number of dos      NEDOS =    301   number of ions     NIONS =     52
   non local maximal  LDIM  =      6   non local SUM 2l+1 LMDIM =     18
   total plane-waves  NPLWV = 373248
   max r-space proj   IRMAX =   5725   max aug-charges    IRDMAX=  17514
   dimension x,y,z NGX =    72 NGY =   72 NGZ =   72
   dimension x,y,z NGXF=   144 NGYF=  144 NGZF=  144
   support grid    NGXF=   144 NGYF=  144 NGZF=  144
   ions per type =              24   4  20   4
   NGX,Y,Z   is equivalent  to a cutoff of  12.35, 12.35, 12.35 a.u.
   NGXF,Y,Z  is equivalent  to a cutoff of  24.71, 24.71, 24.71 a.u.

 SYSTEM =  unknown system                          
 POSCAR =  Li24 P4 S20 Cl4                         

 Startparameter for this run:
   NWRITE =      2    write-flag & timer
   PREC   = accu      normal or accurate (medium, high low for compatibility)
   ISTART =      0    job   : 0-new  1-cont  2-samecut
   ICHARG =      2    charge: 1-file 2-atom 10-const
   ISPIN  =      2    spin polarized calculation?
   LNONCOLLINEAR =      F non collinear calculations
   LSORBIT =      F    spin-orbit coupling
   INIWAV =      1    electr: 0-lowe 1-rand  2-diag
   LASPH  =      T    aspherical Exc in radial PAW
 Electronic Relaxation 1
   ENCUT  =  520.0 eV  38.22 Ry    6.18 a.u.  18.02 18.02 18.02*2*pi/ulx,y,z
   ENINI  =  520.0     initial cutoff
   ENAUG  = 1041.7 eV  augmentation charge cutoff
   NELM   =    100;   NELMIN=  2; NELMDL=-10     # of ELM steps 
   EDIFF  = 0.1E-05   stopping-criterion for ELM
   LREAL  =      T    real-space projection
   NLSPLINE    = F    spline interpolate recip. space projectors
   LCOMPAT=      F    compatible to vasp.4.4
   GGA_COMPAT  = T    GGA compatible to vasp.4.4-vasp.4.6
   LMAXPAW     = -100 max onsite density
   LMAXMIX     =    4 max onsite mixed and CHGCAR
   VOSKOWN=      0    Vosko Wilk Nusair interpolation
   ROPT   =   -0.00025  -0.00025  -0.00025  -0.00025
 Ionic relaxation
   EDIFFG = -.1E-02   stopping-criterion for IOM
   NSW    =   1000    number of steps for IOM
   NBLOCK =      1;   KBLOCK =   1000    inner block; outer block 
   IBRION =      2    ionic relax: 0-MD 1-quasi-New 2-CG
   NFREE  =      1    steps in history (QN), initial steepest desc. (CG)
   ISIF   =      2    stress and relaxation
   IWAVPR =     11    prediction:  0-non 1-charg 2-wave 3-comb
   ISYM   =      2    0-nonsym 1-usesym 2-fastsym
   LCORR  =      T    Harris-Foulkes like correction to forces

   POTIM  = 0.2000    time-step for ionic-motion
   TEIN   =    0.0    initial temperature
   TEBEG  =    0.0;   TEEND  =   0.0 temperature during run
   SMASS  =  -3.00    Nose mass-parameter (am)
   estimated Nose-frequenzy (Omega)   =  0.10E-29 period in steps = 0.31E+47 mass=  -0.215E-26a.u.
   SCALEE = 1.0000    scale energy and forces
   NPACO  =    256;   APACO  = 10.0  distance and # of slots for P.C.
   PSTRESS=    0.0 pullay stress

  Mass of Ions in am
   POMASS =   7.01 30.97 32.07 35.45
  Ionic Valenz
   ZVAL   =   3.00  5.00  6.00  7.00
  Atomic Wigner-Seitz radii
   RWIGS  =  -1.00 -1.00 -1.00 -1.00
  virtual crystal weights 
   VCA    =   1.00  1.00  1.00  1.00
   NELECT =     240.0000    total number of electrons
   NUPDOWN=      -1.0000    fix difference up-down

 DOS related values:
   EMIN   =  10.00;   EMAX   =-10.00  energy-range for DOS
   EFERMI =   0.00;   METHOD = LEGACY      
   ISMEAR =     0;   SIGMA  =   0.03  broadening in eV -4-tet -1-fermi 0-gaus

 Electronic relaxation 2 (details)
   IALGO  =     68    algorithm
   LDIAG  =      T    sub-space diagonalisation (order eigenvalues)
   LSUBROT=      F    optimize rotation matrix (better conditioning)
   TURBO    =      0    0=normal 1=particle mesh
   IRESTART =      0    0=no restart 2=restart with 2 vectors
   NREBOOT  =      0    no. of reboots
   NMIN     =      0    reboot dimension
   EREF     =   0.00    reference energy to select bands
   IMIX   =      4    mixing-type and parameters
     AMIX     =   0.40;   BMIX     =  1.00
     AMIX_MAG =   1.60;   BMIX_MAG =  1.00
     AMIN     =   0.10
     WC   =   100.;   INIMIX=   1;  MIXPRE=   1;  MAXMIX= -45

 Intra band minimization:
   WEIMIN = 0.0010     energy-eigenvalue tresh-hold
   EBREAK =  0.14E-08  absolut break condition
   DEPER  =   0.30     relativ break condition  

   TIME   =   0.40     timestep for ELM

  volume/ion in A,a.u.               =      17.49       118.06
  Fermi-wavevector in a.u.,A,eV,Ry     =   1.049967  1.984149 14.999471  1.102430
  Thomas-Fermi vector in A             =   2.184951
 
 Write flags
   LWAVE        =      F    write WAVECAR
   LDOWNSAMPLE  =      F    k-point downsampling of WAVECAR
   LCHARG       =      F    write CHGCAR
   LVTOT        =      F    write LOCPOT, total local potential
   LVHAR        =      F    write LOCPOT, Hartree potential only
   LELF         =      F    write electronic localiz. function (ELF)
   LORBIT       =      0    0 simple, 1 ext, 2 COOP (PROOUT), +10 PAW based schemes


 Dipole corrections
   LMONO  =      F    monopole corrections only (constant potential shift)
   LDIPOL =      F    correct potential (dipole corrections)
   IDIPOL =      0    1-x, 2-y, 3-z, 4-all directions 
   EPSILON=  1.0000000 bulk dielectric constant

 Exchange correlation treatment:
   GGA     =    PE    GGA type
   LEXCH   =     8    internal setting for exchange type
   LIBXC   =     F    Libxc                    
   VOSKOWN =     0    Vosko Wilk Nusair interpolation
   LHFCALC =     F    Hartree Fock is set to
   LHFONE  =     F    Hartree Fock one center treatment
   AEXX    =    0.0000 exact exchange contribution

 Linear response parameters
   LEPSILON=     F    determine dielectric tensor
   LRPA    =     F    only Hartree local field effects (RPA)
   LNABLA  =     F    use nabla operator in PAW spheres
   LVEL    =     F    velocity operator in full k-point grid
   CSHIFT  =0.1000    complex shift for real part using Kramers Kronig
   OMEGAMAX=  -1.0    maximum frequency
   DEG_THRESHOLD= 0.2000000E-02 threshold for treating states as degnerate
   RTIME   =   -0.100 relaxation time in fs
  (WPLASMAI=    0.000 imaginary part of plasma frequency in eV, 0.658/RTIME)
   DFIELD  = 0.0000000 0.0000000 0.0000000 field for delta impulse in time
 
  Optional k-point grid parameters
   LKPOINTS_OPT  =     F    use optional k-point grid
   KPOINTS_OPT_MODE=     1    mode for optional k-point grid
 
 Orbital magnetization related:
   ORBITALMAG=     F  switch on orbital magnetization
   LCHIMAG   =     F  perturbation theory with respect to B field
   DQ        =  0.001000  dq finite difference perturbation B field
   LLRAUG    =     F  two centre corrections for induced B field
   LBONE     =     F  B-component reconstruction in AE one-centre
   LVGVCALC  =     T  calculate vGv susceptibility
   LVGVAPPL  =     F  apply vGv susceptibility instead of pGv for G=0

 Random number generation:
   RANDOM_GENERATOR = DEFAULT
   PCG_SEED         = not used


--------------------------------------------------------------------------------------------------------


 conjugate gradient relaxation of ions
 charge density and potential will be updated during run
 spin polarized calculation
 RMM-DIIS sequential band-by-band and
  variant of blocked Davidson during initial phase
 perform sub-space diagonalisation
    before iterative eigenvector-optimisation
 modified Broyden-mixing scheme, WC =      100.0
 initial mixing is a Kerker type mixing with AMIX =  0.4000 and BMIX =      1.0000
 Hartree-type preconditioning will be used
 using additional bands           56
 real space projection scheme for non local part
 use partial core corrections
 calculate Harris-corrections to forces 
   (improved forces if not selfconsistent)
 use gradient corrections 
 use of overlap-Matrix (Vanderbilt PP)
 Gauss-broadening in eV      SIGMA  =   0.03


--------------------------------------------------------------------------------------------------------


  energy-cutoff  :      520.00
  volume of cell :      909.72
      direct lattice vectors                 reciprocal lattice vectors
     9.689537689  0.000000000  0.000000000     0.103204098  0.000000000  0.000000000
     0.000000000  9.689537689  0.000000000     0.000000000  0.103204098  0.000000000
     0.000000000  0.000000000  9.689537689     0.000000000  0.000000000  0.103204098

  length of vectors
     9.689537689  9.689537689  9.689537689     0.103204098  0.103204098  0.103204098


 
 k-points in units of 2pi/SCALE and weight: Automatic mesh                          
   0.02580102  0.02580102  0.02580102       0.500
  -0.02580102 -0.02580102  0.02580102       0.250
   0.02580102 -0.02580102  0.02580102       0.250
 
 k-points in reciprocal lattice and weights: Automatic mesh                          
   0.25000000  0.25000000  0.25000000       0.500
  -0.25000000 -0.25000000  0.25000000       0.250
   0.25000000 -0.25000000  0.25000000       0.250
 
 position of ions in fractional coordinates (direct lattice) 
   0.98016231  0.25900698  0.24112743
   0.96955420  0.72838559  0.77174882
   0.03884911  0.17899005  0.82785365
   0.03884911  0.67228076  0.32114436
   0.33288098  0.31786147  0.95428333
   0.17801581  0.80587026  0.02011879
   0.69852413  0.28045874  0.02687936
   0.68399167  0.69671451  0.99345670
   0.19155183  0.99090127  0.20132158
   0.27754435  0.01963652  0.70815521
   0.80104270  0.96231346  0.82940278
   0.82413881  0.01724786  0.19371855
   0.27754435  0.79197919  0.48049789
   0.19155183  0.29881283  0.50923313
   0.80104270  0.67073163  0.53782095
   0.82413881  0.30641586  0.48288655
   0.17801581  0.48001562  0.69426415
   0.33288098  0.54585108  0.18227293
   0.69852413  0.47325504  0.21967566
   0.68399167  0.50667771  0.80341990
   0.47677463  0.19800765  0.66972275
   0.47677463  0.83041166  0.30212675
   0.52766240  0.17532639  0.32480801
   0.53025972  0.81529133  0.68484308
   0.49502892  0.50316289  0.49763378
   0.49502892  0.00250063  0.99697152
   0.00587189  0.49335305  0.00678136
   0.98469263  0.98956936  0.51056504
   0.10744118  0.86674211  0.63339230
   0.10781253  0.11270473  0.38742968
   0.87119237  0.86262875  0.38699580
   0.87119237  0.11313861  0.63750566
   0.88534000  0.61684656  0.12931134
   0.88534000  0.37082307  0.88328784
   0.13683990  0.61179627  0.88833814
   0.14316336  0.37944032  0.12069408
   0.61326724  0.11886508  0.86491834
   0.62565930  0.89093374  0.12222879
   0.37967695  0.13036618  0.11960694
   0.37633139  0.87161529  0.88161272
   0.61326724  0.63521607  0.38126932
   0.62565930  0.37790561  0.60920067
   0.37633139  0.61852168  0.62851911
   0.37967695  0.38052747  0.36976823
   0.74052096  0.73684752  0.76328688
   0.75016017  0.24208601  0.25804840
   0.25109933  0.76264951  0.24683767
   0.25109933  0.25329673  0.73748490
   0.00221871  0.99557140  0.00733420
   0.00221871  0.49280021  0.50456300
   0.46117995  0.98851797  0.51161644
   0.53685300  0.48495968  0.01517473
 
 position of ions in cartesian coordinates  (Angst):
   9.49731967  2.50965787  2.33641331
   9.39453196  7.05771959  7.47788928
   0.37642988  1.73433079  8.02151911
   0.37642988  6.51408975  3.11174039
   3.22546279  3.07993073  9.24656427
   1.72489091  7.80851025  0.19494174
   6.76837585  2.71751557  0.26044860
   6.62756309  6.75084148  9.62613609
   1.85604868  9.60137522  1.95071303
   2.68927646  0.19026881  6.86169664
   7.76173347  9.32437251  8.03652946
   7.98552407  0.16712375  1.87704317
   2.68927646  7.67391222  4.65580237
   1.85604868  2.89535814  4.93423365
   7.76173347  6.49907941  5.21123635
   7.98552407  2.96902801  4.67894742
   1.72489091  4.65112944  6.72709862
   3.22546279  5.28904459  1.76614045
   6.76837585  4.58562258  2.12855561
   6.62756309  4.90947277  7.78476738
   4.61972578  1.91860262  6.48930384
   4.61972578  8.04630503  2.92746856
   5.11280474  1.69883171  3.14723947
   5.13797153  7.89979605  6.63581282
   4.79660133  4.87541577  4.82184123
   4.79660133  0.02422994  9.66019309
   0.05689592  4.78036298  0.06570820
   9.54121633  9.58846963  4.94713923
   1.04105538  8.39833031  6.13727856
   1.04465355  1.09205670  3.75401448
   8.44145132  8.35847376  3.74981039
   8.44145132  1.09626078  6.17713510
   8.57853532  5.97695803  1.25296706
   8.57853532  3.59310412  8.55865084
   1.32591540  5.92802301  8.60758586
   1.38718675  3.67660132  1.16946986
   5.94227601  1.15174771  8.38065884
   6.06234938  8.63273606  1.18434051
   3.67889411  1.26318797  1.15893594
   3.64647715  8.44554923  8.54241972
   5.94227601  6.15495003  3.69432346
   6.06234938  3.66173067  5.90287281
   3.64647715  5.99318915  6.09005963
   3.67889411  3.68713523  3.58288320
   7.17530576  7.13971184  7.39589703
   7.26870528  2.34570148  2.50036969
   2.43303641  7.38972115  2.39174295
   2.43303641  2.45432823  7.14588772
   0.02149830  9.64662664  0.07106497
   0.02149830  4.77500621  4.88898223
   4.46862046  9.57828212  4.95732675
   5.20185740  4.69903511  0.14703607
 


--------------------------------------------------------------------------------------------------------


 k-point   1 :   0.2500 0.2500 0.2500  plane waves:   24468
 k-point   2 :  -0.2500-0.2500 0.2500  plane waves:   24468
 k-point   3 :   0.2500-0.2500 0.2500  plane waves:   24468

 maximum and minimum number of plane-waves per node :       784      745

 maximum number of plane-waves:     24468
 maximum index in each direction: 
   IXMAX=   18   IYMAX=   18   IZMAX=   17
   IXMIN=  -18   IYMIN=  -18   IZMIN=  -18


 real space projection operators:
  total allocation   :      28099.58 KBytes
  max/ min on nodes  :       1175.97        740.20


 parallel 3D FFT for wavefunctions:
    minimum data exchange during FFTs selected (reduces bandwidth)
 parallel 3D FFT for charge:
    minimum data exchange during FFTs selected (reduces bandwidth)


 total amount of memory used by VASP MPI-rank0    46962. kBytes
=======================================================================

   base      :      30000. kBytes
   nonlr-proj:       6479. kBytes
   fftplans  :       1747. kBytes
   grid      :       5278. kBytes
   one-center:         62. kBytes
   wavefun   :       3396. kBytes
 
     INWAV:  cpu time      0.0000: real time      0.0000
 Broyden mixing: mesh for mixing (old mesh)
   NGX = 37   NGY = 37   NGZ = 37
  (NGX  =144   NGY  =144   NGZ  =144)
  gives a total of  50653 points

 initial charge density was supplied:
 charge density of overlapping atoms calculated
 number of electron     240.0000000 magnetization      52.0000000
 keeping initial charge density in first step


--------------------------------------------------------------------------------------------------------


 Maximum index for non-local projection operator          543
 Maximum index for augmentation-charges          838 (set IRDMAX)


--------------------------------------------------------------------------------------------------------


 First call to EWALD:  gamma=   0.183
 Maximum number of real-space cells 3x 3x 3
 Maximum number of reciprocal cells 3x 3x 3

    FEWALD:  cpu time      0.0031: real time      0.0036


--------------------------------------- Ionic step        1  -------------------------------------------




--------------------------------------- Iteration      1(   1)  ---------------------------------------


    POTLOK:  cpu time      0.0593: real time      0.0670
    SETDIJ:  cpu time      0.4123: real time      0.4193
     EDDAV:  cpu time      1.6506: real time      1.7945
       DOS:  cpu time      0.0027: real time      0.0040
    --------------------------------------------
      LOOP:  cpu time      2.1249: real time      2.2848

 eigenvalue-minimisations  :  2328
 total energy-change (2. order) : 0.1587477E+04  (-0.1136049E+05)
 number of electron     240.0000000 magnetization      52.0000000
 augmentation part      240.0000000 magnetization      52.0000000

 Free energy of the ion-electron system (eV)
  ---------------------------------------------------
  alpha Z        PSCENC =       298.39578352
  Ewald energy   TEWEN  =     -8776.38905126
  -Hartree energ DENC   =     -2129.92391926
  -exchange      EXHF   =         0.00000000
  -V(xc)+E(xc)   XCENC  =       533.85491950
  PAW double counting   =      8141.38806575    -8271.61346273
  entropy T*S    EENTRO =        -0.00563222
  eigenvalues    EBANDS =      -911.36932089
  atomic energy  EATOM  =     12703.13999606
  Solvation  Ediel_sol  =         0.00000000
  ---------------------------------------------------
  free energy    TOTEN  =      1587.47737848 eV

  energy without entropy =     1587.48301070  energy(sigma->0) =     1587.48019459


--------------------------------------------------------------------------------------------------------




--------------------------------------- Iteration      1(   2)  ---------------------------------------


     EDDAV:  cpu time      1.9408: real time      1.9641
       DOS:  cpu time      0.0004: real time      0.0004
    --------------------------------------------
      LOOP:  cpu time      1.9412: real time      1.9645

 eigenvalue-minimisations  :  2864
 total energy-change (2. order) :-0.1645191E+04  (-0.1546962E+04)
 number of electron     240.0000000 magnetization      52.0000000
 augmentation part      240.0000000 magnetization      52.0000000

 Free energy of the ion-electron system (eV)
  ---------------------------------------------------
  alpha Z        PSCENC =       298.39578352
  Ewald energy   TEWEN  =     -8776.38905126
  -Hartree energ DENC   =     -2129.92391926
  -exchange      EXHF   =         0.00000000
  -V(xc)+E(xc)   XCENC  =       533.85491950
  PAW double counting   =      8141.38806575    -8271.61346273
  entropy T*S    EENTRO =        -0.00000000
  eigenvalues    EBANDS =     -2556.56584400
  atomic energy  EATOM  =     12703.13999606
  Solvation  Ediel_sol  =         0.00000000
  ---------------------------------------------------
  free energy    TOTEN  =       -57.71351242 eV

  energy without entropy =      -57.71351242  energy(sigma->0) =      -57.71351242


--------------------------------------------------------------------------------------------------------




--------------------------------------- Iteration      1(   3)  ---------------------------------------


     EDDAV:  cpu time      2.1645: real time      2.2109
       DOS:  cpu time      0.0006: real time      0.0006
    --------------------------------------------
      LOOP:  cpu time      2.1651: real time      2.2115

 eigenvalue-minimisations  :  2864
 total energy-change (2. order) :-0.1713963E+03  (-0.1694212E+03)
 number of electron     240.0000000 magnetization      52.0000000
 augmentation part      240.0000000 magnetization      52.0000000

 Free energy of the ion-electron system (eV)
  ---------------------------------------------------
  alpha Z        PSCENC =       298.39578352
  Ewald energy   TEWEN  =     -8776.38905126
  -Hartree energ DENC   =     -2129.92391926
  -exchange      EXHF   =         0.00000000
  -V(xc)+E(xc)   XCENC  =       533.85491950
  PAW double counting   =      8141.38806575    -8271.61346273
  entropy T*S    EENTRO =        -0.00000000
  eigenvalues    EBANDS =     -2727.96211396
  atomic energy  EATOM  =     12703.13999606
  Solvation  Ediel_sol  =         0.00000000
  ---------------------------------------------------
  free energy    TOTEN  =      -229.10978238 eV

  energy without entropy =     -229.10978238  energy(sigma->0) =     -229.10978238


--------------------------------------------------------------------------------------------------------




--------------------------------------- Iteration      1(   4)  ---------------------------------------


     EDDAV:  cpu time      2.3180: real time      2.4209
       DOS:  cpu time      0.0007: real time      0.0007
    --------------------------------------------
      LOOP:  cpu time      2.3186: real time      2.4215

 eigenvalue-minimisations  :  3568
 total energy-change (2. order) :-0.1264472E+02  (-0.1262112E+02)
 number of electron     240.0000000 magnetization      52.0000000
 augmentation part      240.0000000 magnetization      52.0000000

 Free energy of the ion-electron system (eV)
  ---------------------------------------------------
  alpha Z        PSCENC =       298.39578352
  Ewald energy   TEWEN  =     -8776.38905126
  -Hartree energ DENC   =     -2129.92391926
  -exchange      EXHF   =         0.00000000
  -V(xc)+E(xc)   XCENC  =       533.85491950
  PAW double counting   =      8141.38806575    -8271.61346273
  entropy T*S    EENTRO =        -0.00000000
  eigenvalues    EBANDS =     -2740.60683639
  atomic energy  EATOM  =     12703.13999606
  Solvation  Ediel_sol  =         0.00000000
  ---------------------------------------------------
  free energy    TOTEN  =      -241.75450481 eV

  energy without entropy =     -241.75450481  energy(sigma->0) =     -241.75450481


--------------------------------------------------------------------------------------------------------




--------------------------------------- Iteration      1(   5)  ---------------------------------------


     EDDAV:  cpu time      2.2128: real time      2.2489
       DOS:  cpu time      0.0005: real time      0.0005
    --------------------------------------------
      LOOP:  cpu time      2.2133: real time      2.2494

 eigenvalue-minimisations  :  3376
 total energy-change (2. order) :-0.2201245E+00  (-0.2200261E+00)
 number of electron     240.0000000 magnetization      52.0000000
 augmentation part      240.0000000 magnetization      52.0000000

 Free energy of the ion-electron system (eV)
  ---------------------------------------------------
  alpha Z        PSCENC =       298.39578352
  Ewald energy   TEWEN  =     -8776.38905126
  -Hartree energ DENC   =     -2129.92391926
  -exchange      EXHF   =         0.00000000
  -V(xc)+E(xc)   XCENC  =       533.85491950
  PAW double counting   =      8141.38806575    -8271.61346273
  entropy T*S    EENTRO =        -0.00000000
  eigenvalues    EBANDS =     -2740.82696093
  atomic energy  EATOM  =     12703.13999606
  Solvation  Ediel_sol  =         0.00000000
  ---------------------------------------------------
  free energy    TOTEN  =      -241.97462935 eV

  energy without entropy =     -241.97462935  energy(sigma->0) =     -241.97462935


--------------------------------------------------------------------------------------------------------




--------------------------------------- Iteration      1(   6)  ---------------------------------------


     EDDAV:  cpu time      2.2478: real time      2.2682
       DOS:  cpu time      0.0004: real time      0.0004
    --------------------------------------------
      LOOP:  cpu time      2.2482: real time      2.2686

 eigenvalue-minimisations  :  3448
 total energy-change (2. order) :-0.9452717E-02  (-0.9451516E-02)
 number of electron     240.0000000 magnetization      52.0000000
 augmentation part      240.0000000 magnetization      52.0000000

 Free energy of the ion-electron system (eV)
  ---------------------------------------------------
  alpha Z        PSCENC =       298.39578352
  Ewald energy   TEWEN  =     -8776.38905126
  -Hartree energ DENC   =     -2129.92391926
  -exchange      EXHF   =         0.00000000
  -V(xc)+E(xc)   XCENC  =       533.85491950
  PAW double counting   =      8141.38806575    -8271.61346273
  entropy T*S    EENTRO =        -0.00000000
  eigenvalues    EBANDS =     -2740.83641365
  atomic energy  EATOM  =     12703.13999606
  Solvation  Ediel_sol  =         0.00000000
  ---------------------------------------------------
  free energy    TOTEN  =      -241.98408207 eV

  energy without entropy =     -241.98408207  energy(sigma->0) =     -241.98408207


--------------------------------------------------------------------------------------------------------




--------------------------------------- Iteration      1(   7)  ---------------------------------------


     EDDAV:  cpu time      2.3390: real time      2.3743
       DOS:  cpu time      0.0006: real time      0.0006
    --------------------------------------------
      LOOP:  cpu time      2.3396: real time      2.3748

 eigenvalue-minimisations  :  3448
 total energy-change (2. order) :-0.4609026E-03  (-0.4608773E-03)
 number of electron     240.0000000 magnetization      52.0000000
 augmentation part      240.0000000 magnetization      52.0000000

 Free energy of the ion-electron system (eV)
  ---------------------------------------------------
  alpha Z        PSCENC =       298.39578352
  Ewald energy   TEWEN  =     -8776.38905126
  -Hartree energ DENC   =     -2129.92391926
  -exchange      EXHF   =         0.00000000
  -V(xc)+E(xc)   XCENC  =       533.85491950
  PAW double counting   =      8141.38806575    -8271.61346273
  entropy T*S    EENTRO =        -0.00000000
  eigenvalues    EBANDS =     -2740.83687455
  atomic energy  EATOM  =     12703.13999606
  Solvation  Ediel_sol  =         0.00000000
  ---------------------------------------------------
  free energy    TOTEN  =      -241.98454297 eV

  energy without entropy =     -241.98454297  energy(sigma->0) =     -241.98454297


--------------------------------------------------------------------------------------------------------




--------------------------------------- Iteration      1(   8)  ---------------------------------------


     EDDAV:  cpu time      2.2206: real time      2.2413
       DOS:  cpu time      0.0006: real time      0.0006
    --------------------------------------------
      LOOP:  cpu time      2.2212: real time      2.2419

 eigenvalue-minimisations  :  3392
 total energy-change (2. order) :-0.3008374E-04  (-0.3008306E-04)
 number of electron     240.0000000 magnetization      52.0000000
 augmentation part      240.0000000 magnetization      52.0000000

 Free energy of the ion-electron system (eV)
  ---------------------------------------------------
  alpha Z        PSCENC =       298.39578352
  Ewald energy   TEWEN  =     -8776.38905126
  -Hartree energ DENC   =     -2129.92391926
  -exchange      EXHF   =         0.00000000
  -V(xc)+E(xc)   XCENC  =       533.85491950
  PAW double counting   =      8141.38806575    -8271.61346273
  entropy T*S    EENTRO =        -0.00000000
  eigenvalues    EBANDS =     -2740.83690463
  atomic energy  EATOM  =     12703.13999606
  Solvation  Ediel_sol  =         0.00000000
  ---------------------------------------------------
  free energy    TOTEN  =      -241.98457305 eV

  energy without entropy =     -241.98457305  energy(sigma->0) =     -241.98457305


--------------------------------------------------------------------------------------------------------




--------------------------------------- Iteration      1(   9)  ---------------------------------------


     EDDAV:  cpu time      2.2410: real time      2.2622
       DOS:  cpu time      0.0006: real time      0.0006
    --------------------------------------------
      LOOP:  cpu time      2.2416: real time      2.2628

 eigenvalue-minimisations  :  3432
 total energy-change (2. order) :-0.2112243E-05  (-0.2112809E-05)
 number of electron     240.0000000 magnetization      52.0000000
 augmentation part      240.0000000 magnetization      52.0000000

 Free energy of the ion-electron system (eV)
  ---------------------------------------------------
  alpha Z        PSCENC =       298.39578352
  Ewald energy   TEWEN  =     -8776.38905126
  -Hartree energ DENC   =     -2129.92391926
  -exchange      EXHF   =         0.00000000
  -V(xc)+E(xc)   XCENC  =       533.85491950
  PAW double counting   =      8141.38806575    -8271.61346273
  entropy T*S    EENTRO =        -0.00000000
  eigenvalues    EBANDS =     -2740.83690675
  atomic energy  EATOM  =     12703.13999606
  Solvation  Ediel_sol  =         0.00000000
  ---------------------------------------------------
  free energy    TOTEN  =      -241.98457517 eV

  energy without entropy =     -241.98457517  energy(sigma->0) =     -241.98457517


--------------------------------------------------------------------------------------------------------




--------------------------------------- Iteration      1(  10)  ---------------------------------------


     EDDAV:  cpu time      1.4666: real time      1.5034
       DOS:  cpu time      0.0004: real time      0.0004
    CHARGE:  cpu time      0.1388: real time      0.1684
    MIXING:  cpu time      0.0016: real time      0.0020
    --------------------------------------------
      LOOP:  cpu time      1.6074: real time      1.6742

 eigenvalue-minimisations  :  1968
 total energy-change (2. order) :-0.1170392E-06  (-0.1166439E-06)
 number of electron     240.0000002 magnetization      27.3714198
 augmentation part        1.4943940 magnetization      27.8128405

 Broyden mixing:
  rms(total) = 0.64693E+01    rms(broyden)= 0.64691E+01
  rms(prec ) = 0.67119E+01
  weight for this iteration     100.00

 Free energy of the ion-electron system (eV)
  ---------------------------------------------------
  alpha Z        PSCENC =       298.39578352
  Ewald energy   TEWEN  =     -8776.38905126
  -Hartree energ DENC   =     -2129.92391926
  -exchange      EXHF   =         0.00000000
  -V(xc)+E(xc)   XCENC  =       533.85491950
  PAW double counting   =      8141.38806575    -8271.61346273
  entropy T*S    EENTRO =        -0.00000000
  eigenvalues    EBANDS =     -2740.83690686
  atomic energy  EATOM  =     12703.13999606
  Solvation  Ediel_sol  =         0.00000000
  ---------------------------------------------------
  free energy    TOTEN  =      -241.98457528 eV

  energy without entropy =     -241.98457528  energy(sigma->0) =     -241.98457528


--------------------------------------------------------------------------------------------------------




--------------------------------------- Iteration      1(  11)  ---------------------------------------


    POTLOK:  cpu time      0.0580: real time      0.0590
    SETDIJ:  cpu time      0.3970: real time      0.3997
    EDDIAG:  cpu time      0.2805: real time      0.2849
  RMM-DIIS:  cpu time      0.8731: real time      0.8822
    ORTHCH:  cpu time      0.0513: real time      0.0542
       DOS:  cpu time      0.0005: real time      0.0005
    CHARGE:  cpu time      0.1135: real time      0.1446
    MIXING:  cpu time      0.0012: real time      0.0021
    --------------------------------------------
      LOOP:  cpu time      1.7751: real time      1.8271

 eigenvalue-minimisations  :  2112
 total energy-change (2. order) : 0.6785927E+01  (-0.4885503E+01)
 number of electron     240.0000002 magnetization      16.3901948
 augmentation part        1.7041877 magnetization      16.5759068

 Broyden mixing:
  rms(total) = 0.33167E+01    rms(broyden)= 0.33166E+01
  rms(prec ) = 0.34319E+01
  weight for this iteration     100.00

 eigenvalues of (default mixing * dielectric matrix)
  average eigenvalue GAMMA=   0.7264
  0.7264

 Free energy of the ion-electron system (eV)
  ---------------------------------------------------
  alpha Z        PSCENC =       298.39578352
  Ewald energy   TEWEN  =     -8776.38905126
  -Hartree energ DENC   =     -2178.97217337
  -exchange      EXHF   =         0.00000000
  -V(xc)+E(xc)   XCENC  =       542.47829222
  PAW double counting   =      8935.74365464    -9072.11273785
  entropy T*S    EENTRO =        -0.00000000
  eigenvalues    EBANDS =     -2687.48241273
  atomic energy  EATOM  =     12703.13999606
  Solvation  Ediel_sol  =         0.00000000
  ---------------------------------------------------
  free energy    TOTEN  =      -235.19864875 eV

  energy without entropy =     -235.19864875  energy(sigma->0) =     -235.19864875


--------------------------------------------------------------------------------------------------------




--------------------------------------- Iteration      1(  12)  ---------------------------------------


    POTLOK:  cpu time      0.0544: real time      0.0553
    SETDIJ:  cpu time      0.4116: real time      0.4137
    EDDIAG:  cpu time      0.2692: real time      0.2713
  RMM-DIIS:  cpu time      0.9163: real time      0.9254
    ORTHCH:  cpu time      0.0495: real time      0.0502
       DOS:  cpu time      0.0004: real time      0.0004
    CHARGE:  cpu time      0.1257: real time      0.1564
    MIXING:  cpu time      0.0011: real time      0.0011
    --------------------------------------------
      LOOP:  cpu time      1.8282: real time      1.8738

 eigenvalue-minimisations  :  2216
 total energy-change (2. order) :-0.2066427E+02  (-0.2298747E+01)
 number of electron     240.0000002 magnetization       0.8665441
 augmentation part        1.8082838 magnetization       1.2104935

 Broyden mixing:
  rms(total) = 0.20597E+01    rms(broyden)= 0.20597E+01
  rms(prec ) = 0.21193E+01
  weight for this iteration     100.00

 eigenvalues of (default mixing * dielectric matrix)
  average eigenvalue GAMMA=   1.1268
  1.5850  0.6686

 Free energy of the ion-electron system (eV)
  ---------------------------------------------------
  alpha Z        PSCENC =       298.39578352
  Ewald energy   TEWEN  =     -8776.38905126
  -Hartree energ DENC   =     -2204.02813941
  -exchange      EXHF   =         0.00000000
  -V(xc)+E(xc)   XCENC  =       536.06170266
  PAW double counting   =      9294.53028317    -9434.56333283
  entropy T*S    EENTRO =        -0.00000000
  eigenvalues    EBANDS =     -2673.01016448
  atomic energy  EATOM  =     12703.13999606
  Solvation  Ediel_sol  =         0.00000000
  ---------------------------------------------------
  free energy    TOTEN  =      -255.86292257 eV

  energy without entropy =     -255.86292257  energy(sigma->0) =     -255.86292257


--------------------------------------------------------------------------------------------------------




--------------------------------------- Iteration      1(  13)  ---------------------------------------


    POTLOK:  cpu time      0.0534: real time      0.0544
    SETDIJ:  cpu time      0.4101: real time      0.4118
    EDDIAG:  cpu time      0.2678: real time      0.2695
  RMM-DIIS:  cpu time      0.9068: real time      0.9156
    ORTHCH:  cpu time      0.0491: real time      0.0494
       DOS:  cpu time      0.0005: real time      0.0005
    CHARGE:  cpu time      0.1242: real time      0.1517
    MIXING:  cpu time      0.0011: real time      0.0011
    --------------------------------------------
      LOOP:  cpu time      1.8130: real time      1.8540

 eigenvalue-minimisations  :  2183
 total energy-change (2. order) :-0.2496717E+01  (-0.8754211E+00)
 number of electron     240.0000002 magnetization      -1.8829616
 augmentation part        1.9093324 magnetization      -1.7729407

 Broyden mixing:
  rms(total) = 0.70839E+00    rms(broyden)= 0.70839E+00
  rms(prec ) = 0.74052E+00
  weight for this iteration     100.00

 eigenvalues of (default mixing * dielectric matrix)
  average eigenvalue GAMMA=   1.3041
  2.5188  0.7426  0.6510

 Free energy of the ion-electron system (eV)
  ---------------------------------------------------
  alpha Z        PSCENC =       298.39578352
  Ewald energy   TEWEN  =     -8776.38905126
  -Hartree energ DENC   =     -2231.57562346
  -exchange      EXHF   =         0.00000000
  -V(xc)+E(xc)   XCENC  =       537.51620283
  PAW double counting   =      9789.01145453    -9932.91912612
  entropy T*S    EENTRO =        -0.00000000
  eigenvalues    EBANDS =     -2645.53927521
  atomic energy  EATOM  =     12703.13999606
  Solvation  Ediel_sol  =         0.00000000
  ---------------------------------------------------
  free energy    TOTEN  =      -258.35963910 eV

  energy without entropy =     -258.35963910  energy(sigma->0) =     -258.35963910


--------------------------------------------------------------------------------------------------------




--------------------------------------- Iteration      1(  14)  ---------------------------------------


    POTLOK:  cpu time      0.0530: real time      0.0540
    SETDIJ:  cpu time      0.4118: real time      0.4133
    EDDIAG:  cpu time      0.2672: real time      0.2688
  RMM-DIIS:  cpu time      1.1579: real time      1.1688
    ORTHCH:  cpu time      0.0496: real time      0.0504
       DOS:  cpu time      0.0004: real time      0.0004
    CHARGE:  cpu time      0.1053: real time      0.1369
    MIXING:  cpu time      0.0013: real time      0.0013
    --------------------------------------------
      LOOP:  cpu time      2.0465: real time      2.0939

 eigenvalue-minimisations  :  2766
 total energy-change (2. order) :-0.1871220E+00  (-0.1992589E+00)
 number of electron     240.0000002 magnetization      -0.8770735
 augmentation part        1.8827859 magnetization      -0.8507471

 Broyden mixing:
  rms(total) = 0.32131E+00    rms(broyden)= 0.32131E+00
  rms(prec ) = 0.35729E+00
  weight for this iteration     100.00

 eigenvalues of (default mixing * dielectric matrix)
  average eigenvalue GAMMA=   1.2721
  2.6264  1.1746  0.6911  0.5962

 Free energy of the ion-electron system (eV)
  ---------------------------------------------------
  alpha Z        PSCENC =       298.39578352
  Ewald energy   TEWEN  =     -8776.38905126
  -Hartree energ DENC   =     -2233.83015542
  -exchange      EXHF   =         0.00000000
  -V(xc)+E(xc)   XCENC  =       538.04526135
  PAW double counting   =      9876.65205399   -10021.42944677
  entropy T*S    EENTRO =        -0.00000000
  eigenvalues    EBANDS =     -2643.13120254
  atomic energy  EATOM  =     12703.13999606
  Solvation  Ediel_sol  =         0.00000000
  ---------------------------------------------------
  free energy    TOTEN  =      -258.54676106 eV

  energy without entropy =     -258.54676106  energy(sigma->0) =     -258.54676106


--------------------------------------------------------------------------------------------------------




--------------------------------------- Iteration      1(  15)  ---------------------------------------


    POTLOK:  cpu time      0.0534: real time      0.0543
    SETDIJ:  cpu time      0.4106: real time      0.4124
    EDDIAG:  cpu time      0.2690: real time      0.2707
  RMM-DIIS:  cpu time      0.9572: real time      0.9659
    ORTHCH:  cpu time      0.0502: real time      0.0508
       DOS:  cpu time      0.0005: real time      0.0005
    CHARGE:  cpu time      0.1205: real time      0.1400
    MIXING:  cpu time      0.0019: real time      0.0019
    --------------------------------------------
      LOOP:  cpu time      1.8632: real time      1.8965

 eigenvalue-minimisations  :  2296
 total energy-change (2. order) : 0.3038718E-01  (-0.3502349E-01)
 number of electron     240.0000002 magnetization      -0.2394810
 augmentation part        1.8331091 magnetization      -0.2138501

 Broyden mixing:
  rms(total) = 0.66564E-01    rms(broyden)= 0.66562E-01
  rms(prec ) = 0.79097E-01
  weight for this iteration     100.00

 eigenvalues of (default mixing * dielectric matrix)
  average eigenvalue GAMMA=   1.2740
  2.5343  1.5869  0.9564  0.6865  0.6056

 Free energy of the ion-electron system (eV)
  ---------------------------------------------------
  alpha Z        PSCENC =       298.39578352
  Ewald energy   TEWEN  =     -8776.38905126
  -Hartree energ DENC   =     -2229.26717646
  -exchange      EXHF   =         0.00000000
  -V(xc)+E(xc)   XCENC  =       537.67337727
  PAW double counting   =      9846.24455252    -9990.81648256
  entropy T*S    EENTRO =        -0.00000000
  eigenvalues    EBANDS =     -2647.49737297
  atomic energy  EATOM  =     12703.13999606
  Solvation  Ediel_sol  =         0.00000000
  ---------------------------------------------------
  free energy    TOTEN  =      -258.51637388 eV

  energy without entropy =     -258.51637388  energy(sigma->0) =     -258.51637388


--------------------------------------------------------------------------------------------------------




--------------------------------------- Iteration      1(  16)  ---------------------------------------


    POTLOK:  cpu time      0.0526: real time      0.0536
    SETDIJ:  cpu time      0.4106: real time      0.4120
    EDDIAG:  cpu time      0.2668: real time      0.2683
  RMM-DIIS:  cpu time      0.9622: real time      0.9712
    ORTHCH:  cpu time      0.0491: real time      0.0494
       DOS:  cpu time      0.0005: real time      0.0005
    CHARGE:  cpu time      0.1139: real time      0.1364
    MIXING:  cpu time      0.0013: real time      0.0013
    --------------------------------------------
      LOOP:  cpu time      1.8570: real time      1.8926

 eigenvalue-minimisations  :  2323
 total energy-change (2. order) :-0.2056889E-01  (-0.1073509E-01)
 number of electron     240.0000002 magnetization      -0.1124091
 augmentation part        1.8107253 magnetization      -0.0984508

 Broyden mixing:
  rms(total) = 0.30807E-01    rms(broyden)= 0.30806E-01
  rms(prec ) = 0.37542E-01
  weight for this iteration     100.00

 eigenvalues of (default mixing * dielectric matrix)
  average eigenvalue GAMMA=   1.2477
  2.4493  1.9291  1.0421  0.6223  0.7011  0.7425

 Free energy of the ion-electron system (eV)
  ---------------------------------------------------
  alpha Z        PSCENC =       298.39578352
  Ewald energy   TEWEN  =     -8776.38905126
  -Hartree energ DENC   =     -2228.81798462
  -exchange      EXHF   =         0.00000000
  -V(xc)+E(xc)   XCENC  =       537.59163798
  PAW double counting   =      9834.09067946    -9978.42299778
  entropy T*S    EENTRO =        -0.00000000
  eigenvalues    EBANDS =     -2648.12500613
  atomic energy  EATOM  =     12703.13999606
  Solvation  Ediel_sol  =         0.00000000
[...]
 -0.061   0.062   0.000   0.461  -0.270   0.096   0.004  -0.002   0.001   0.006   0.001  -0.001  -0.007   0.002
  0.061  -0.062  -0.000  -0.270   0.461  -0.096  -0.002   0.004  -0.001  -0.007  -0.001   0.001   0.006  -0.002
 -0.330   0.338   0.001   0.096  -0.096   1.053   0.001  -0.001   0.008   0.000  -0.007   0.006  -0.000  -0.011
 -0.001   0.001   0.000   0.004  -0.002   0.001   0.000  -0.000   0.000   0.000   0.000  -0.000  -0.000   0.000
  0.001  -0.001  -0.000  -0.002   0.004  -0.001  -0.000   0.000  -0.000  -0.000  -0.000   0.000   0.000  -0.000
 -0.002   0.002   0.000   0.001  -0.001   0.008   0.000  -0.000   0.000   0.000  -0.000   0.000  -0.000  -0.000
  0.015  -0.015  -0.000   0.006  -0.007   0.000   0.000  -0.000   0.000   0.000  -0.000  -0.000  -0.000   0.000
 -0.033   0.033   0.000   0.001  -0.001  -0.007   0.000  -0.000  -0.000  -0.000   0.000  -0.000   0.000   0.000
 -0.023   0.023   0.000  -0.001   0.001   0.006  -0.000   0.000   0.000  -0.000  -0.000   0.000   0.000  -0.000
 -0.015   0.015   0.000  -0.007   0.006  -0.000  -0.000   0.000  -0.000  -0.000   0.000   0.000   0.000  -0.000
  0.039  -0.040  -0.000   0.002  -0.002  -0.011   0.000  -0.000  -0.000   0.000   0.000  -0.000  -0.000   0.000
 total augmentation occupancy for first ion, spin component:           2
 -0.000   0.000   0.000  -0.000   0.000   0.000   0.000  -0.000  -0.000  -0.000  -0.000   0.000   0.000  -0.000
  0.000  -0.000  -0.000   0.000  -0.000  -0.000  -0.000   0.000   0.000   0.000   0.000  -0.000  -0.000   0.000
  0.000  -0.000  -0.000  -0.000   0.000  -0.000  -0.000   0.000  -0.000  -0.000   0.000  -0.000   0.000   0.000
 -0.000   0.000  -0.000  -0.000   0.000   0.000  -0.000   0.000  -0.000   0.000   0.000  -0.000  -0.000   0.000
  0.000  -0.000   0.000   0.000  -0.000  -0.000   0.000  -0.000   0.000  -0.000  -0.000   0.000   0.000  -0.000
  0.000  -0.000  -0.000   0.000  -0.000  -0.000  -0.000   0.000   0.000   0.000  -0.000  -0.000  -0.000   0.000
  0.000  -0.000  -0.000  -0.000   0.000  -0.000  -0.000   0.000  -0.000   0.000   0.000  -0.000   0.000   0.000
 -0.000   0.000   0.000   0.000  -0.000   0.000   0.000  -0.000   0.000   0.000  -0.000   0.000   0.000  -0.000
 -0.000   0.000  -0.000  -0.000   0.000   0.000  -0.000   0.000   0.000  -0.000  -0.000   0.000   0.000  -0.000
 -0.000   0.000  -0.000   0.000  -0.000   0.000   0.000   0.000  -0.000  -0.000   0.000  -0.000  -0.000   0.000
 -0.000   0.000   0.000   0.000  -0.000  -0.000   0.000  -0.000  -0.000   0.000   0.000   0.000  -0.000  -0.000
  0.000  -0.000  -0.000  -0.000   0.000  -0.000  -0.000   0.000   0.000  -0.000   0.000   0.000   0.000  -0.000
  0.000  -0.000   0.000  -0.000   0.000  -0.000   0.000   0.000   0.000  -0.000  -0.000   0.000  -0.000  -0.000
 -0.000   0.000   0.000   0.000  -0.000   0.000   0.000  -0.000  -0.000   0.000  -0.000  -0.000  -0.000   0.000


------------------------ aborting loop because EDIFF is reached ----------------------------------------


    CHARGE:  cpu time      0.1011: real time      0.1070
    FORLOC:  cpu time      0.0038: real time      0.0038
    FORNL :  cpu time      0.3062: real time      0.3086
    STRESS:  cpu time      0.9050: real time      0.9112
    FORCOR:  cpu time      0.0493: real time      0.0497
    FORHAR:  cpu time      0.0081: real time      0.0081
    MIXING:  cpu time      0.0007: real time      0.0007
    OFIELD:  cpu time      0.0000: real time      0.0000

 ---------------------------------------------------------------------------------------------

         DFTD3 V3.0 Rev 1        
 Edisp (eV)  -13.44529

 E6    (eV) :    -8.2850
 E8    (eV) :    -5.1603
 % E8        : 38.38
    FORVDW:  cpu time      0.2855: real time      0.2875

  FORCE on cell =-STRESS in cart. coord.  units (eV):
  Direction    XX          YY          ZZ          XY          YZ          ZX
  --------------------------------------------------------------------------------------
  Alpha Z   298.39578   298.39578   298.39578
  Ewald   -2956.98932 -2909.76022 -2909.76022    16.73287    13.25797   -16.73287
  Hartree   724.70273   753.39611   753.39611     6.27358    -0.77810    -6.27358
  E(xc)    -947.76043  -947.73902  -947.73903     0.02160     0.00106    -0.02160
  Local   -1476.39549 -1547.51844 -1547.51844   -22.05029    -6.41825    22.05029
  n-local  1481.92243  1481.05627  1481.00728    -0.17746     0.01268    -0.87590
  augment  -356.79967  -356.66491  -356.66496    -0.07156     0.09012     0.07429
  Kinetic  3246.14056  3243.66620  3243.59683    -0.69567    -3.50299    -0.83860
  Fock        0.00000     0.00000     0.00000     0.00000     0.00000     0.00000
  vdW       -14.26712   -14.25159   -14.25159    -0.00829     0.02553     0.00829
  -------------------------------------------------------------------------------------
  Total      -1.05052     0.52096     0.52096     1.31722     2.68793    -1.31722
  in kB      -1.85015     0.91751     0.91751     2.31985     4.73391    -2.31985
  external pressure =       -0.01 kB  Pullay stress =        0.00 kB


 VOLUME and BASIS-vectors are now :
 -----------------------------------------------------------------------------
  energy-cutoff  :      520.00
  volume of cell :      909.72
      direct lattice vectors                 reciprocal lattice vectors
     9.689537689  0.000000000  0.000000000     0.103204098  0.000000000  0.000000000
     0.000000000  9.689537689  0.000000000     0.000000000  0.103204098  0.000000000
     0.000000000  0.000000000  9.689537689     0.000000000  0.000000000  0.103204098

  length of vectors
     9.689537689  9.689537689  9.689537689     0.103204098  0.103204098  0.103204098


 FORCES acting on ions
    electron-ion (+dipol)            ewald-force                    non-local-force                 convergence-correction
 -----------------------------------------------------------------------------------------------
   -.411E+01 -.259E+01 0.259E+01   0.321E+01 0.246E+01 -.246E+01   0.887E+00 0.121E+00 -.121E+00   -.757E-04 0.129E-03 -.129E-03
   0.113E+01 0.204E+00 -.204E+00   -.191E+01 -.241E+00 0.241E+00   0.781E+00 0.337E-01 -.337E-01   -.903E-05 -.263E-04 0.263E-04
   -.137E+01 0.490E+01 -.844E+01   0.215E+01 -.377E+01 0.736E+01   -.775E+00 -.113E+01 0.108E+01   0.816E-04 -.221E-04 0.233E-04
   -.137E+01 0.844E+01 -.490E+01   0.215E+01 -.736E+01 0.377E+01   -.775E+00 -.108E+01 0.113E+01   0.816E-04 -.233E-04 0.221E-04
   -.686E+01 -.126E+02 0.413E+01   0.553E+01 0.112E+02 -.509E+01   0.133E+01 0.144E+01 0.953E+00   -.663E-04 -.210E-03 0.134E-04
   0.422E+01 -.316E+01 0.255E+01   -.312E+01 0.190E+01 -.201E+01   -.110E+01 0.126E+01 -.540E+00   -.365E-04 0.274E-04 0.357E-04
   -.784E+00 0.646E+01 0.282E+01   0.149E+01 -.720E+01 -.213E+01   -.708E+00 0.740E+00 -.683E+00   -.517E-04 0.850E-04 0.970E-04
   0.782E+01 -.257E+01 -.505E+01   -.706E+01 0.388E+01 0.419E+01   -.763E+00 -.132E+01 0.860E+00   0.616E-04 -.105E-03 0.682E-04
   0.452E+01 -.727E+01 0.643E+01   -.351E+01 0.654E+01 -.500E+01   -.101E+01 0.725E+00 -.144E+01   0.899E-04 0.251E-04 -.621E-05
   0.160E+01 -.202E+01 -.532E+01   -.254E+01 0.278E+01 0.606E+01   0.955E+00 -.758E+00 -.747E+00   0.418E-04 0.635E-04 -.798E-04
   -.699E+01 0.216E-02 -.516E+01   0.563E+01 -.594E+00 0.387E+01   0.136E+01 0.591E+00 0.129E+01   0.156E-04 -.579E-05 -.116E-03
   -.381E+01 0.336E+01 0.155E+01   0.249E+01 -.286E+01 -.827E+00   0.132E+01 -.502E+00 -.722E+00   0.466E-04 0.592E-04 0.404E-04
   0.160E+01 0.532E+01 0.202E+01   -.254E+01 -.606E+01 -.278E+01   0.955E+00 0.747E+00 0.758E+00   0.418E-04 0.798E-04 -.635E-04
   0.452E+01 -.643E+01 0.727E+01   -.351E+01 0.500E+01 -.654E+01   -.101E+01 0.144E+01 -.725E+00   0.899E-04 0.621E-05 -.251E-04
   -.699E+01 0.516E+01 -.216E-02   0.563E+01 -.387E+01 0.594E+00   0.136E+01 -.129E+01 -.591E+00   0.156E-04 0.116E-03 0.578E-05
   -.381E+01 -.155E+01 -.336E+01   0.249E+01 0.827E+00 0.286E+01   0.132E+01 0.722E+00 0.502E+00   0.466E-04 -.404E-04 -.592E-04
   0.422E+01 -.255E+01 0.316E+01   -.312E+01 0.201E+01 -.190E+01   -.110E+01 0.540E+00 -.126E+01   -.365E-04 -.357E-04 -.274E-04
   -.686E+01 -.413E+01 0.126E+02   0.553E+01 0.509E+01 -.112E+02   0.133E+01 -.953E+00 -.144E+01   -.663E-04 -.134E-04 0.210E-03
   -.784E+00 -.282E+01 -.646E+01   0.149E+01 0.213E+01 0.720E+01   -.708E+00 0.683E+00 -.740E+00   -.517E-04 -.970E-04 -.850E-04
   0.782E+01 0.505E+01 0.257E+01   -.706E+01 -.419E+01 -.388E+01   -.763E+00 -.860E+00 0.132E+01   0.616E-04 -.682E-04 0.105E-03
   -.964E+01 0.218E+01 0.750E+01   0.902E+01 -.798E+00 -.642E+01   0.609E+00 -.138E+01 -.109E+01   -.119E-03 0.941E-05 0.660E-04
   -.964E+01 -.750E+01 -.218E+01   0.902E+01 0.642E+01 0.798E+00   0.609E+00 0.109E+01 0.138E+01   -.119E-03 -.660E-04 -.941E-05
   -.266E+01 0.140E+02 -.140E+02   0.362E+01 -.126E+02 0.126E+02   -.954E+00 -.139E+01 0.139E+01   -.538E-04 0.179E-03 -.179E-03
   -.986E+01 -.488E+01 0.488E+01   0.108E+02 0.379E+01 -.379E+01   -.913E+00 0.110E+01 -.110E+01   0.444E-05 0.104E-03 -.104E-03
   0.419E+01 0.318E+01 -.375E+01   -.451E+01 -.300E+01 0.364E+01   0.318E+00 -.178E+00 0.111E+00   -.137E-03 -.398E-05 -.269E-03
   0.419E+01 0.375E+01 -.318E+01   -.451E+01 -.364E+01 0.300E+01   0.318E+00 -.111E+00 0.178E+00   -.137E-03 0.269E-03 0.399E-05
   0.251E+01 0.253E+01 -.253E+01   -.242E+01 -.272E+01 0.272E+01   -.813E-01 0.189E+00 -.189E+00   -.183E-03 -.129E-03 0.129E-03
   0.167E+02 -.274E+01 0.274E+01   -.177E+02 0.251E+01 -.251E+01   0.984E+00 0.228E+00 -.228E+00   0.147E-03 -.153E-03 0.153E-03
   -.218E+02 0.411E+02 -.411E+02   0.246E+02 -.443E+02 0.443E+02   -.280E+01 0.315E+01 -.315E+01   -.255E-03 0.349E-03 -.349E-03
   -.409E+02 -.330E+02 0.330E+02   0.450E+02 0.359E+02 -.359E+02   -.414E+01 -.296E+01 0.296E+01   0.778E-04 -.296E-03 0.296E-03
   0.584E+02 0.275E+02 0.380E+02   -.618E+02 -.303E+02 -.411E+02   0.339E+01 0.281E+01 0.310E+01   0.108E-03 -.860E-04 0.339E-03
   0.584E+02 -.380E+02 -.275E+02   -.618E+02 0.411E+02 0.303E+02   0.339E+01 -.310E+01 -.281E+01   0.108E-03 -.339E-03 0.860E-04
   0.260E+02 -.538E+02 -.417E+02   -.283E+02 0.577E+02 0.450E+02   0.231E+01 -.392E+01 -.329E+01   0.582E-04 -.354E-03 -.192E-03
   0.260E+02 0.417E+02 0.538E+02   -.283E+02 -.450E+02 -.577E+02   0.231E+01 0.329E+01 0.392E+01   0.582E-04 0.192E-03 0.354E-03
   -.632E+02 -.270E+02 0.270E+02   0.673E+02 0.292E+02 -.292E+02   -.410E+01 -.221E+01 0.221E+01   -.204E-03 -.292E-04 0.293E-04
   -.439E+02 0.388E+02 -.388E+02   0.471E+02 -.415E+02 0.415E+02   -.314E+01 0.273E+01 -.273E+01   -.111E-03 0.781E-04 -.781E-04
   -.373E+02 -.382E+02 0.505E+02   0.403E+02 0.407E+02 -.540E+02   -.297E+01 -.249E+01 0.342E+01   -.159E-03 -.813E-04 0.196E-03
   -.420E+02 0.337E+02 -.437E+02   0.452E+02 -.364E+02 0.472E+02   -.321E+01 0.273E+01 -.344E+01   -.142E-03 0.144E-03 -.902E-04
   0.396E+02 -.430E+02 -.398E+02   -.424E+02 0.467E+02 0.424E+02   0.277E+01 -.368E+01 -.267E+01   0.763E-04 0.881E-04 -.215E-03
   0.321E+02 0.618E+02 0.191E+02   -.347E+02 -.660E+02 -.215E+02   0.264E+01 0.425E+01 0.243E+01   0.564E-04 0.290E-03 0.778E-04
   -.373E+02 -.505E+02 0.382E+02   0.403E+02 0.540E+02 -.407E+02   -.297E+01 -.342E+01 0.249E+01   -.159E-03 -.196E-03 0.813E-04
   -.420E+02 0.437E+02 -.337E+02   0.452E+02 -.472E+02 0.364E+02   -.321E+01 0.344E+01 -.273E+01   -.142E-03 0.902E-04 -.144E-03
   0.321E+02 -.191E+02 -.618E+02   -.347E+02 0.215E+02 0.660E+02   0.264E+01 -.243E+01 -.425E+01   0.564E-04 -.778E-04 -.290E-03
   0.396E+02 0.398E+02 0.430E+02   -.424E+02 -.424E+02 -.467E+02   0.277E+01 0.267E+01 0.368E+01   0.763E-04 0.215E-03 -.881E-04
   0.728E+01 -.893E+01 0.893E+01   -.766E+01 0.915E+01 -.915E+01   0.375E+00 -.223E+00 0.223E+00   0.273E-03 0.208E-03 -.208E-03
   0.859E+01 0.168E+02 -.168E+02   -.908E+01 -.172E+02 0.172E+02   0.495E+00 0.358E+00 -.358E+00   -.147E-03 0.298E-03 -.298E-03
   -.428E+00 0.149E+02 0.884E+01   0.451E+00 -.153E+02 -.898E+01   -.236E-01 0.353E+00 0.133E+00   -.149E-04 -.784E-04 0.217E-03
   -.428E+00 -.884E+01 -.149E+02   0.451E+00 0.898E+01 0.153E+02   -.236E-01 -.133E+00 -.353E+00   -.149E-04 -.217E-03 0.784E-04
   0.334E+01 -.333E+01 0.149E+01   -.338E+01 0.340E+01 -.159E+01   0.492E-01 -.658E-01 0.101E+00   0.149E-03 0.150E-03 -.144E-03
   0.334E+01 -.149E+01 0.333E+01   -.338E+01 0.159E+01 -.340E+01   0.492E-01 -.101E+00 0.658E-01   0.149E-03 0.144E-03 -.150E-03
   -.426E+02 -.210E+02 0.210E+02   0.431E+02 0.213E+02 -.213E+02   -.482E+00 -.299E+00 0.299E+00   -.642E-03 -.496E-03 0.496E-03
   0.472E+02 -.166E+02 0.166E+02   -.480E+02 0.168E+02 -.168E+02   0.768E+00 -.203E+00 0.203E+00   0.770E-03 -.413E-03 0.413E-03
 -----------------------------------------------------------------------------------------------
   -.660E+00 -.123E+01 0.123E+01   0.426E-13 -.462E-13 -.107E-13   0.657E+00 0.122E+01 -.122E+01   -.291E-03 -.263E-03 0.263E-03
 
 
 POSITION                                       TOTAL-FORCE (eV/Angst)
 -----------------------------------------------------------------------------------
      9.49731      2.50967      2.33640        -0.000114      0.000076     -0.000076
      9.39454      7.05768      7.47792         0.000093     -0.000196      0.000196
      0.37643      1.73434      8.02152         0.000001      0.000054     -0.000027
      0.37643      6.51409      3.11173         0.000001      0.000027     -0.000054
      3.22550      3.07999      9.24653         0.000188      0.000409     -0.000276
      1.72482      7.80854      0.19495        -0.000319      0.000139     -0.000026
      6.76837      2.71752      0.26042        -0.000029      0.000010     -0.000168
      6.62749      6.75085      9.62613        -0.000407      0.000090     -0.000069
      1.85605      9.60140      1.95071         0.000009      0.000081     -0.000029
      2.68929      0.19025      6.86176         0.000032     -0.000077      0.000303
      7.76176      9.32435      8.03667         0.000137     -0.000117      0.000736
      7.98557      0.16713      1.87711         0.000213      0.000040      0.000352
      2.68929      7.67385      4.65582         0.000032     -0.000303      0.000077
      1.85605      2.89536      4.93421         0.000009      0.000029     -0.000081
      7.76176      6.49894      5.21126         0.000137     -0.000736      0.000117
      7.98557      2.96896      4.67894         0.000213     -0.000352     -0.000040
      1.72482      4.65112      6.72707        -0.000319      0.000026     -0.000139
      3.22550      5.28908      1.76608         0.000188      0.000276     -0.000409
      6.76837      4.58565      2.12855        -0.000029      0.000168     -0.000010
      6.62749      4.90948      7.78476        -0.000407      0.000069     -0.000090
      4.61972      1.91860      6.48923         0.000003      0.000020     -0.000391
      4.61972      8.04638      2.92747         0.000003      0.000391     -0.000020
      5.11281      1.69880      3.14728         0.000063     -0.000204      0.000204
      5.13800      7.89982      6.63579         0.000145      0.000149     -0.000149
      4.79658      4.87540      4.82179         0.000229      0.000350      0.000255
      4.79658      0.02428      9.66021         0.000229     -0.000255     -0.000350
      0.05690      4.78035      0.06572        -0.000117     -0.000107      0.000107
      9.54120      9.58845      4.94716         0.000305     -0.000198      0.000198
      1.04109      8.39829      6.13732        -0.000166      0.000385     -0.000385
      1.04465      1.09209      3.75398        -0.000638     -0.000482      0.000482
      8.44142      8.35842      3.74983         0.000244      0.000150      0.000313
      8.44142      1.09624      6.17719         0.000244     -0.000313     -0.000150
      8.57851      5.97702      1.25297         0.000304     -0.000303     -0.000531
      8.57851      3.59310      8.55859         0.000304      0.000531      0.000303
      1.32599      5.92800      8.60761        -0.000213     -0.000286      0.000286
      1.38723      3.67657      1.16950        -0.000581      0.000178     -0.000178
      5.94228      1.15177      8.38060        -0.000433     -0.000254      0.000269
      6.06240      8.63276      1.18437        -0.000419      0.000603     -0.000505
      3.67888      1.26324      1.15895        -0.000034      0.000116     -0.000073
      3.64647      8.44548      8.54243         0.000572      0.000559      0.000544
      5.94228      6.15501      3.69430        -0.000433     -0.000269      0.000254
      6.06240      3.66171      5.90285        -0.000419      0.000505     -0.000603
      3.64647      5.99318      6.09012         0.000572     -0.000544     -0.000559
      3.67888      3.68712      3.58283        -0.000034      0.000073     -0.000116
      7.17531      7.13971      7.39590         0.000151     -0.000106      0.000106
      7.26868      2.34571      2.50036         0.000077      0.000195     -0.000195
      2.43304      7.38973      2.39173        -0.000034      0.000210      0.000121
      2.43304      2.45434      7.14587        -0.000034     -0.000121     -0.000210
      0.02149      9.64665      0.07110         0.000103     -0.000036      0.000048
      0.02149      4.77498      4.88895         0.000103     -0.000048      0.000036
      4.46868      9.57833      4.95728        -0.000701     -0.000461      0.000461
      5.20177      4.69907      0.14701         0.000975     -0.000138      0.000138
 -----------------------------------------------------------------------------------
    total drift:                               -0.003136     -0.005872      0.005894


--------------------------------------------------------------------------------------------------------



  FREE ENERGIE OF THE ION-ELECTRON SYSTEM (eV)
  ---------------------------------------------------
  free  energy   TOTEN  =      -271.99003656 eV

  energy  without entropy=     -271.99003656  energy(sigma->0) =     -271.99003656
 
 d Force = 0.3847428E-06[ 0.498E-07, 0.720E-06]  d Energy = 0.8135465E-06-0.429E-06
 d Force = 0.3706124E-01[ 0.371E-01, 0.371E-01]  d Ewald  = 0.3706124E-01 0.255E-10


--------------------------------------------------------------------------------------------------------


    POTLOK:  cpu time      0.4716: real time      0.4734


--------------------------------------------------------------------------------------------------------


 stress matrix after NEB project (eV)
     -1.05052      1.31722     -1.31722
      1.31722      0.52096      2.68793
     -1.31722      2.68793      0.52096
  FORCES: max atom, RMS     0.000994    0.000512
  FORCE total and by dimension    0.003689    0.000975
  Stress total and by dimension    4.799652    2.687933


--------------------------------------------------------------------------------------------------------


  
 reached required accuracy - stopping structural energy minimisation
     LOOP+:  cpu time      6.3444: real time      6.4235
    4ORBIT:  cpu time      0.0000: real time      0.0000

 total amount of memory used by VASP MPI-rank0    46962. kBytes
=======================================================================

   base      :      30000. kBytes
   nonlr-proj:       6479. kBytes
   fftplans  :       1747. kBytes
   grid      :       5278. kBytes
   one-center:         62. kBytes
   wavefun   :       3396. kBytes
 
  
  
 General timing and accounting informations for this job:
 ========================================================
  
                  Total CPU time used (sec):       73.227
                            User time (sec):       71.931
                          System time (sec):        1.296
                         Elapsed time (sec):       77.257
  
                   Maximum memory used (kb):      389752.
                   Average memory used (kb):          N/A
  
                          Minor page faults:        63003
                          Major page faults:          127
                 Voluntary context switches:         6371
