<?xml version="1.0" encoding="ISO-8859-1"?>
<modeling>
 <generator>
  <i name="program" type="string">vasp </i>
  <i name="version" type="string">6.4.1  </i>
  <i name="subversion" type="string">05Apr23 (build Jun 07 2023 15:38:11) complex                          parallel </i>
  <i name="platform" type="string">LinuxIFC </i>
  <i name="date" type="string">2023 10 16 </i>
  <i name="time" type="string">22:24:36 </i>
 </generator>
 <incar>
  <i type="string" name="PREC">Accu</i>
  <i type="string" name="ALGO">F</i>
  <i type="logical" name="LDIAG"> T  </i>
  <i type="int" name="ISPIN">     2</i>
  <i type="int" name="NELM">   100</i>
  <i type="int" name="NELMDL">   -10</i>
  <i type="int" name="IBRION">     2</i>
  <i name="EDIFF">      0.00000100</i>
  <i name="EDIFFG">     -0.00100000</i>
  <i type="int" name="NSW">  1000</i>
  <i type="int" name="ISIF">     2</i>
  <i name="ENCUT">    520.00000000</i>
  <i name="POTIM">      0.20000000</i>
  <i type="string" name="LREAL">Auto</i>
  <i type="logical" name="LPLANE"> T  </i>
  <i type="int" name="ISMEAR">     0</i>
  <i name="SIGMA">      0.03000000</i>
  <i type="int" name="LMAXMIX">     4</i>
  <i type="logical" name="LWAVE"> F  </i>
  <i type="logical" name="LCHARG"> F  </i>
  <i type="logical" name="LASPH"> T  </i>
  <i type="string" name="GGA">PE</i>
  <i type="int" name="IVDW">    12</i>
 </incar>
 <primitive_cell>
  <structure name="primitive_cell" >
   <crystal>
    <varray name="basis" >
     <v>       9.68953769       0.00000000       0.00000000 </v>
     <v>       0.00000000       9.68953769       0.00000000 </v>
     <v>       0.00000000       0.00000000       9.68953769 </v>
    </varray>
    <i name="volume">    909.72298762 </i>
    <varray name="rec_basis" >
     <v>       0.10320410       0.00000000       0.00000000 </v>
     <v>       0.00000000       0.10320410       0.00000000 </v>
     <v>       0.00000000       0.00000000       0.10320410 </v>
    </varray>
   </crystal>
   <varray name="positions" >
    <v>       0.98016231       0.25900698       0.24112743 </v>
    <v>       0.96955420       0.72838559       0.77174882 </v>
    <v>       0.03884911       0.17899005       0.82785365 </v>
    <v>       0.03884911       0.67228076       0.32114436 </v>
    <v>       0.33288098       0.31786147       0.95428333 </v>
    <v>       0.17801581       0.80587026       0.02011879 </v>
    <v>       0.69852413       0.28045874       0.02687936 </v>
    <v>       0.68399167       0.69671451       0.99345670 </v>
    <v>       0.19155183       0.99090127       0.20132158 </v>
    <v>       0.27754435       0.01963652       0.70815521 </v>
    <v>       0.80104270       0.96231346       0.82940278 </v>
    <v>       0.82413881       0.01724786       0.19371855 </v>
    <v>       0.27754435       0.79197919       0.48049789 </v>
    <v>       0.19155183       0.29881283       0.50923313 </v>
    <v>       0.80104270       0.67073163       0.53782095 </v>
    <v>       0.82413881       0.30641586       0.48288655 </v>
    <v>       0.17801581       0.48001562       0.69426415 </v>
    <v>       0.33288098       0.54585108       0.18227293 </v>
    <v>       0.69852413       0.47325504       0.21967566 </v>
    <v>       0.68399167       0.50667771       0.80341990 </v>
    <v>       0.47677463       0.19800765       0.66972275 </v>
    <v>       0.47677463       0.83041166       0.30212675 </v>
    <v>       0.52766240       0.17532639       0.32480801 </v>
    <v>       0.53025972       0.81529133       0.68484308 </v>
    <v>       0.49502892       0.50316289       0.49763378 </v>
    <v>       0.49502892       0.00250063       0.99697152 </v>
    <v>       0.00587189       0.49335305       0.00678136 </v>
    <v>       0.98469263       0.98956936       0.51056504 </v>
    <v>       0.10744118       0.86674211       0.63339230 </v>
    <v>       0.10781253       0.11270473       0.38742968 </v>
    <v>       0.87119237       0.86262875       0.38699580 </v>
    <v>       0.87119237       0.11313861       0.63750566 </v>
    <v>       0.88534000       0.61684656       0.12931134 </v>
    <v>       0.88534000       0.37082307       0.88328784 </v>
    <v>       0.13683990       0.61179627       0.88833814 </v>
    <v>       0.14316336       0.37944032       0.12069408 </v>
    <v>       0.61326724       0.11886508       0.86491834 </v>
    <v>       0.62565930       0.89093374       0.12222879 </v>
    <v>       0.37967695       0.13036618       0.11960694 </v>
    <v>       0.37633139       0.87161529       0.88161272 </v>
    <v>       0.61326724       0.63521607       0.38126932 </v>
    <v>       0.62565930       0.37790561       0.60920067 </v>
    <v>       0.37633139       0.61852168       0.62851911 </v>
    <v>       0.37967695       0.38052747       0.36976823 </v>
    <v>       0.74052096       0.73684752       0.76328688 </v>
    <v>       0.75016017       0.24208601       0.25804840 </v>
    <v>       0.25109933       0.76264951       0.24683767 </v>
    <v>       0.25109933       0.25329673       0.73748490 </v>
    <v>       0.00221871       0.99557140       0.00733420 </v>
    <v>       0.00221871       0.49280021       0.50456300 </v>
    <v>       0.46117995       0.98851797       0.51161644 </v>
    <v>       0.53685300       0.48495968       0.01517473 </v>
   </varray>
  </structure>
  <varray name="primitive_index" >
   <v type="int" >        1 </v>
   <v type="int" >        2 </v>
   <v type="int" >        3 </v>
   <v type="int" >        4 </v>
   <v type="int" >        5 </v>
   <v type="int" >        6 </v>
   <v type="int" >        7 </v>
   <v type="int" >        8 </v>
   <v type="int" >        9 </v>
   <v type="int" >       10 </v>
   <v type="int" >       11 </v>
   <v type="int" >       12 </v>
   <v type="int" >       13 </v>
   <v type="int" >       14 </v>
   <v type="int" >       15 </v>
   <v type="int" >       16 </v>
   <v type="int" >       17 </v>
   <v type="int" >       18 </v>
   <v type="int" >       19 </v>
   <v type="int" >       20 </v>
   <v type="int" >       21 </v>
   <v type="int" >       22 </v>
   <v type="int" >       23 </v>
   <v type="int" >       24 </v>
   <v type="int" >       25 </v>
   <v type="int" >       26 </v>
   <v type="int" >       27 </v>
   <v type="int" >       28 </v>
   <v type="int" >       29 </v>
   <v type="int" >       30 </v>
   <v type="int" >       31 </v>
   <v type="int" >       32 </v>
   <v type="int" >       33 </v>
   <v type="int" >       34 </v>
   <v type="int" >       35 </v>
   <v type="int" >       36 </v>
   <v type="int" >       37 </v>
   <v type="int" >       38 </v>
   <v type="int" >       39 </v>
   <v type="int" >       40 </v>
   <v type="int" >       41 </v>
   <v type="int" >       42 </v>
   <v type="int" >       43 </v>
   <v type="int" >       44 </v>
   <v type="int" >       45 </v>
   <v type="int" >       46 </v>
   <v type="int" >       47 </v>
   <v type="int" >       48 </v>
   <v type="int" >       49 </v>
   <v type="int" >       50 </v>
   <v type="int" >       51 </v>
   <v type="int" >       52 </v>
  </varray>
 </primitive_cell>
 <kpoints>
  <generation param="Monkhorst-Pack">
   <v type="int" name="divisions">       2        2        2 </v>
   <v name="usershift">      0.00000000       0.00000000       0.00000000 </v>
   <v name="genvec1">      0.50000000       0.00000000       0.00000000 </v>
   <v name="genvec2">      0.00000000       0.50000000       0.00000000 </v>
   <v name="genvec3">      0.00000000       0.00000000       0.50000000 </v>
   <v name="shift">      0.50000000       0.50000000       0.50000000 </v>
  </generation>
  <varray name="kpointlist" >
   <v>       0.25000000       0.25000000       0.25000000 </v>
   <v>      -0.25000000      -0.25000000       0.25000000 </v>
   <v>       0.25000000      -0.25000000       0.25000000 </v>
  </varray>
  <varray name="weights" >
   <v>       0.50000000 </v>
   <v>       0.25000000 </v>
   <v>       0.25000000 </v>
  </varray>
 </kpoints>
 <parameters>
  <separator name="general" >
   <i type="string" name="SYSTEM">unknown system</i>
   <i type="logical" name="LCOMPAT"> F  </i>
  </separator>
  <separator name="electronic" >
   <i type="string" name="PREC">accu</i>
   <i name="ENMAX">    520.00000000</i>
   <i name="ENAUG">   1041.69900000</i>
   <i name="EDIFF">      0.00000100</i>
   <i type="int" name="IALGO">    68</i>
   <i type="int" name="IWAVPR">    11</i>
   <i type="int" name="NBANDS">   176</i>
   <i type="int" name="NBANDSLOW">    -1</i>
   <i type="int" name="NBANDSHIGH">    -1</i>
   <i name="NELECT">    240.00000000</i>
   <i type="int" name="TURBO">     0</i>
   <i type="int" name="IRESTART">     0</i>
   <i type="int" name="NREBOOT">     0</i>
   <i type="int" name="NMIN">     0</i>
   <i name="EREF">      0.00000000</i>
   <separator name="electronic smearing" >
    <i type="int" name="ISMEAR">     0</i>
    <i name="SIGMA">      0.03000000</i>
    <i name="KSPACING">      0.50000000</i>
    <i type="logical" name="KGAMMA"> T  </i>
    <i type="logical" name="KBLOWUP"> T  </i>
   </separator>
   <separator name="electronic projectors" >
    <i type="logical" name="LREAL"> T  </i>
    <v name="ROPT">     -0.00025000     -0.00025000     -0.00025000     -0.00025000</v>
    <i type="int" name="LMAXPAW">  -100</i>
    <i type="int" name="LMAXMIX">     4</i>
    <i type="logical" name="NLSPLINE"> F  </i>
   </separator>
   <separator name="electronic startup" >
    <i type="int" name="ISTART">     0</i>
    <i type="int" name="ICHARG">     2</i>
    <i type="int" name="INIWAV">     1</i>
   </separator>
   <separator name="electronic spin" >
    <i type="int" name="ISPIN">     2</i>
    <i type="logical" name="LNONCOLLINEAR"> F  </i>
    <v name="MAGMOM">      1.00000000      1.00000000      1.00000000      1.00000000      1.00000000      1.00000000      1.00000000      1.00000000      1.00000000      1.00000000      1.00000000      1.00000000      1.00000000      1.00000000      1.00000000      1.00000000      1.00000000      1.00000000      1.00000000      1.00000000
      1.00000000      1.00000000      1.00000000      1.00000000      1.00000000      1.00000000      1.00000000      1.00000000      1.00000000      1.00000000      1.00000000      1.00000000      1.00000000      1.00000000      1.00000000      1.00000000      1.00000000      1.00000000      1.00000000      1.00000000
      1.00000000      1.00000000      1.00000000      1.00000000      1.00000000      1.00000000      1.00000000      1.00000000      1.00000000      1.00000000      1.00000000      1.00000000</v>
    <i name="NUPDOWN">     -1.00000000</i>
    <i type="logical" name="LSORBIT"> F  </i>
    <v name="SAXIS">      0.00000000      0.00000000      1.00000000</v>
    <i type="logical" name="LSPIRAL"> F  </i>
    <v name="QSPIRAL">      0.00000000      0.00000000      0.00000000</v>
    <i type="logical" name="LZEROZ"> F  </i>
   </separator>
   <separator name="electronic exchange-correlation" >
    <i type="logical" name="LASPH"> T  </i>
    <i type="logical" name="LMETAGGA"> F  </i>
   </separator>
   <separator name="electronic convergence" >
    <i type="int" name="NELM">   100</i>
    <i type="int" name="NELMDL">   -10</i>
    <i type="int" name="NELMIN">     2</i>
    <i name="ENINI">    520.00000000</i>
    <separator name="electronic convergence detail" >
     <i type="logical" name="LDIAG"> T  </i>
     <i type="logical" name="LSUBROT"> F  </i>
     <i name="WEIMIN">      0.00100000</i>
     <i name="EBREAK">      0.00000000</i>
     <i name="DEPER">      0.30000000</i>
     <i type="int" name="NRMM">     4</i>
     <i name="TIME">      0.40000000</i>
    </separator>
   </separator>
   <separator name="electronic mixer" >
    <i name="AMIX">      0.40000000</i>
    <i name="BMIX">      1.00000000</i>
    <i name="AMIN">      0.10000000</i>
    <i name="AMIX_MAG">      1.60000000</i>
    <i name="BMIX_MAG">      1.00000000</i>
    <separator name="electronic mixer details" >
     <i type="int" name="IMIX">     4</i>
     <i type="logical" name="MIXFIRST"> F  </i>
     <i type="int" name="MAXMIX">   -45</i>
     <i name="WC">    100.00000000</i>
     <i type="int" name="INIMIX">     1</i>
     <i type="int" name="MIXPRE">     1</i>
     <i type="int" name="MREMOVE">     5</i>
    </separator>
   </separator>
   <separator name="electronic dipolcorrection" >
    <i type="logical" name="LDIPOL"> F  </i>
    <i type="logical" name="LMONO"> F  </i>
    <i type="int" name="IDIPOL">     0</i>
    <i name="EPSILON">      1.00000000</i>
    <v name="DIPOL">   -100.00000000   -100.00000000   -100.00000000</v>
    <i name="EFIELD">      0.00000000</i>
   </separator>
  </separator>
  <separator name="grids" >
   <i type="int" name="NGX">    72</i>
   <i type="int" name="NGY">    72</i>
   <i type="int" name="NGZ">    72</i>
   <i type="int" name="NGXF">   144</i>
   <i type="int" name="NGYF">   144</i>
   <i type="int" name="NGZF">   144</i>
   <i type="logical" name="ADDGRID"> F  </i>
  </separator>
  <separator name="ionic" >
   <i type="int" name="NSW">  1000</i>
   <i type="int" name="IBRION">     2</i>
   <i type="int" name="MDALGO">     0</i>
   <i type="int" name="ISIF">     2</i>
   <i name="PSTRESS">      0.00000000</i>
   <i name="EDIFFG">     -0.00100000</i>
   <i type="int" name="NFREE">     1</i>
   <i name="POTIM">      0.20000000</i>
   <i name="SMASS">     -3.00000000</i>
   <i name="SCALEE">      1.00000000</i>
  </separator>
  <separator name="ionic md" >
   <i name="TEBEG">      0.00010000</i>
   <i name="TEEND">      0.00010000</i>
   <i type="int" name="NBLOCK">     1</i>
   <i type="int" name="KBLOCK">  1000</i>
   <i type="int" name="NPACO">   256</i>
   <i name="APACO">     10.00000000</i>
  </separator>
  <separator name="symmetry" >
   <i type="int" name="ISYM">     2</i>
   <i name="SYMPREC">      0.00001000</i>
  </separator>
  <separator name="dos" >
   <i type="int" name="LORBIT">     0</i>
   <v name="RWIGS">     -1.00000000     -1.00000000     -1.00000000     -1.00000000</v>
   <i type="int" name="NEDOS">   301</i>
   <i name="EMIN">     10.00000000</i>
   <i name="EMAX">    -10.00000000</i>
   <i name="EFERMI">      0.00000000</i>
  </separator>
  <separator name="writing" >
   <i type="int" name="NWRITE">     2</i>
   <i type="logical" name="LWAVE"> F  </i>
   <i type="logical" name="LDOWNSAMPLE"> F  </i>
   <i type="logical" name="LCHARG"> F  </i>
   <i type="logical" name="LPARD"> F  </i>
   <i type="logical" name="LVTOT"> F  </i>
   <i type="logical" name="LVHAR"> F  </i>
   <i type="logical" name="LELF"> F  </i>
   <i type="logical" name="LOPTICS"> F  </i>
   <v name="STM">      0.00000000      0.00000000      0.00000000      0.00000000      0.00000000      0.00000000      0.00000000</v>
  </separator>
  <separator name="performance" >
   <i type="int" name="NPAR">     4</i>
   <i type="int" name="NSIM">     4</i>
   <i type="int" name="NBLK">    -1</i>
   <i type="logical" name="LPLANE"> T  </i>
   <i type="logical" name="LSCALAPACK"> T  </i>
   <i type="logical" name="LSCAAWARE"> F  </i>
   <i type="logical" name="LSCALU"> F  </i>
   <i type="logical" name="LASYNC"> F  </i>
   <i type="logical" name="LORBITALREAL"> F  </i>
  </separator>
  <separator name="miscellaneous" >
   <i type="int" name="IDIOT">     3</i>
   <i type="int" name="PHON_NSTRUCT">    -1</i>
   <i type="logical" name="LMUSIC"> F  </i>
   <v name="POMASS">      7.01000000     30.97400000     32.06600000     35.45300000</v>
   <v name="DARWINR">      0.00000000      0.00000000      0.00000000      0.00000000</v>
   <v name="DARWINV">      1.00000000      1.00000000      1.00000000      1.00000000</v>
   <i type="logical" name="LCORR"> T  </i>
  </separator>
  <i type="logical" name="GGA_COMPAT"> T  </i>
  <i type="logical" name="LBERRY"> F  </i>
  <i type="int" name="ICORELEVEL">     0</i>
  <i type="logical" name="LDAU"> F  </i>
  <i type="int" name="I_CONSTRAINED_M">     0</i>
  <separator name="electronic exchange-correlation" >
   <i type="string" name="GGA">PE</i>
   <i type="int" name="VOSKOWN">     0</i>
   <i type="logical" name="LHFCALC"> F  </i>
   <i type="string" name="PRECFOCK"></i>
   <i type="logical" name="LSYMGRAD"> F  </i>
   <i type="logical" name="LHFONE"> F  </i>
   <i type="logical" name="LRHFCALC"> F  </i>
   <i type="logical" name="LTHOMAS"> F  </i>
   <i type="logical" name="LMODELHF"> F  </i>
   <i type="logical" name="LFOCKACE"> F  </i>
   <i name="ENCUT4O">     -1.00000000</i>
   <i type="int" name="EXXOEP">     0</i>
   <i type="int" name="FOURORBIT">     0</i>
   <i name="AEXX">      0.00000000</i>
   <i name="HFALPHA">      0.00000000</i>
   <i name="MCALPHA">      0.00000000</i>
   <i name="ALDAX">      1.00000000</i>
   <i name="AGGAX">      1.00000000</i>
   <i name="ALDAC">      1.00000000</i>
   <i name="AGGAC">      1.00000000</i>
   <i type="int" name="NKREDX">     1</i>
   <i type="int" name="NKREDY">     1</i>
   <i type="int" name="NKREDZ">     1</i>
   <i type="logical" name="SHIFTRED"> F  </i>
   <i type="logical" name="ODDONLY"> F  </i>
   <i type="logical" name="EVENONLY"> F  </i>
   <i type="int" name="LMAXFOCK">     0</i>
   <i type="int" name="NMAXFOCKAE">     0</i>
   <i type="logical" name="LFOCKAEDFT"> F  </i>
   <i name="HFSCREEN">      0.00000000</i>
   <i name="HFSCREENC">      0.00000000</i>
   <i type="int" name="NBANDSGWLOW">     0</i>
  </separator>
  <separator name="vdW DFT" >
   <i type="logical" name="LUSE_VDW"> F  </i>
   <i type="int" name="IVDW_NL">     1</i>
   <i type="logical" name="LSPIN_VDW"> F  </i>
   <i name="Zab_VDW">     -0.84910000</i>
   <i name="PARAM1">      0.12340000</i>
   <i name="PARAM2">      1.00000000</i>
   <i name="PARAM3">      0.00000000</i>
  </separator>
  <separator name="model GW" >
   <i type="int" name="MODEL_GW">     0</i>
   <i name="MODEL_EPS0">     10.49680370</i>
   <i name="MODEL_ALPHA">      1.00000000</i>
  </separator>
  <separator name="linear response parameters" >
   <i type="logical" name="LEPSILON"> F  </i>
   <i type="logical" name="LRPA"> F  </i>
   <i type="logical" name="LNABLA"> F  </i>
   <i type="logical" name="LVEL"> F  </i>
   <i name="CSHIFT">      0.10000000</i>
   <i name="OMEGAMAX">     -1.00000000</i>
   <i name="DEG_THRESHOLD">      0.00200000</i>
   <i name="RTIME">     -0.10000000</i>
   <i name="WPLASMAI">      0.00000000</i>
   <v name="DFIELD">      0.00000000      0.00000000      0.00000000</v>
   <v name="WPLASMA">      0.00000000      0.00000000      0.00000000      0.00000000      0.00000000      0.00000000      0.00000000      0.00000000      0.00000000</v>
  </separator>
  <separator name="orbital magnetization" >
   <i type="logical" name="NUCIND"> F  </i>
   <v name="MAGPOS">      0.00000000      0.00000000      0.00000000</v>
   <i type="logical" name="LNICSALL"> T  </i>
   <i type="logical" name="ORBITALMAG"> F  </i>
   <i type="logical" name="LMAGBLOCH"> F  </i>
   <i type="logical" name="LCHIMAG"> F  </i>
   <i type="logical" name="LGAUGE"> T  </i>
   <i type="int" name="MAGATOM">     0</i>
   <v name="MAGDIPOL">      0.00000000      0.00000000      0.00000000</v>
   <v name="AVECCONST">      0.00000000      0.00000000      0.00000000</v>
  </separator>
  <separator name="response functions" >
   <i type="logical" name="LALL_IN_ONE"> F  </i>
   <i type="int" name="IALL_IN_ONE">    -1</i>
   <i type="int" name="NBANDS_WAVE">    -1</i>
   <i type="logical" name="LFINITE_TEMPERATURE"> F  </i>
   <i type="logical" name="LADDER"> F  </i>
   <i type="logical" name="LRPAFORCE"> F  </i>
   <i type="logical" name="LFXC"> F  </i>
   <i type="logical" name="LHARTREE"> T  </i>
   <i type="int" name="IBSE">     0</i>
   <v type="int" name="KPOINT">    -1     0     0     0</v>
   <i type="logical" name="LTCTC"> F  </i>
   <i type="logical" name="LTCTE"> F  </i>
   <i type="logical" name="LTETE"> F  </i>
   <i type="logical" name="LTRIPLET"> F  </i>
   <i type="logical" name="LFXCEPS"> F  </i>
   <i type="logical" name="LFXHEG"> F  </i>
   <i type="int" name="NATURALO">     2</i>
   <i type="logical" name="LHOLEGF"> F  </i>
   <i type="logical" name="L2ORDER"> F  </i>
   <i type="logical" name="LDMP1"> F  </i>
   <i type="logical" name="LMP2LT"> F  </i>
   <i type="logical" name="LSMP2LT"> F  </i>
   <i type="logical" name="LGWLF"> F  </i>
   <i name="ENCUTGW">     -1.60000002</i>
   <i name="ENCUTGWSOFT">     -1.60000002</i>
   <i name="ENCUTLF">     -1.00000000</i>
   <i type="logical" name="LESF_SPLINES"> F  </i>
   <i type="int" name="LMAXMP2">    -1</i>
   <i name="SCISSOR">      0.00000000</i>
   <i type="int" name="NOMEGA">     0</i>
   <i type="int" name="NOMEGAR">     0</i>
   <i type="int" name="NBANDSGW">    -1</i>
   <i type="int" name="NBANDSO">    -1</i>
   <i type="int" name="NBANDSV">    -1</i>
   <i type="int" name="NELMGW">     1</i>
   <i type="int" name="NELMHF">     1</i>
   <i type="int" name="DIM">     3</i>
   <i type="int" name="IESPILON">     4</i>
   <i type="int" name="ANTIRES">     0</i>
   <i name="OMEGAMAX">    -30.00000000</i>
   <i name="OMEGAMIN">    -30.00000000</i>
   <i name="OMEGATL">   -200.00000000</i>
   <i type="int" name="OMEGAGRID">     0</i>
   <i name="CSHIFT">     -0.10000000</i>
   <i type="logical" name="LSELFENERGY"> F  </i>
   <i type="logical" name="LSPECTRAL"> F  </i>
   <i type="logical" name="LSPECTRALGW"> F  </i>
   <i type="logical" name="LSINGLES"> F  </i>
   <i type="logical" name="LFERMIGW"> F  </i>
   <i type="logical" name="ODDONLYGW"> F  </i>
   <i type="logical" name="EVENONLYGW"> F  </i>
   <i type="int" name="NKREDLFX">     1</i>
   <i type="int" name="NKREDLFY">     1</i>
   <i type="int" name="NKREDLFZ">     1</i>
   <i type="int" name="MAXMEM">  2800</i>
   <i type="int" name="TELESCOPE">     0</i>
   <i type="int" name="NTAUPAR">    -1</i>
   <i type="int" name="NOMEGAPAR">    -1</i>
   <i name="DAMP_NEWTON">      0.80000001</i>
   <i name="LAMBDA">      1.00000000</i>
  </separator>
  <separator name="External order field" >
   <i name="OFIELD_KAPPA">      0.00000000</i>
   <v name="OFIELD_K">      0.00000000      0.00000000      0.00000000</v>
   <i name="OFIELD_Q6_NEAR">      0.00000000</i>
   <i name="OFIELD_Q6_FAR">      0.00000000</i>
   <i name="OFIELD_A">      0.00000000</i>
  </separator>
  <separator name="optional k-points parameters" >
   <i type="int" name="KPOINTS_OPT_MODE">     1</i>
   <i type="logical" name="LKPOINTS_OPT"> F  </i>
  </separator>
 </parameters>
 <atominfo>
  <atoms>      52 </atoms>
  <types>       4 </types>
  <array name="atoms" >
   <dimension dim="1">ion</dimension>
   <field type="string">element</field>
   <field type="int">atomtype</field>
   <set>
    <rc><c>Li</c><c>   1</c></rc>
    <rc><c>Li</c><c>   1</c></rc>
    <rc><c>Li</c><c>   1</c></rc>
    <rc><c>Li</c><c>   1</c></rc>
    <rc><c>Li</c><c>   1</c></rc>
    <rc><c>Li</c><c>   1</c></rc>
    <rc><c>Li</c><c>   1</c></rc>
    <rc><c>Li</c><c>   1</c></rc>
    <rc><c>Li</c><c>   1</c></rc>
    <rc><c>Li</c><c>   1</c></rc>
    <rc><c>Li</c><c>   1</c></rc>
    <rc><c>Li</c><c>   1</c></rc>
    <rc><c>Li</c><c>   1</c></rc>
    <rc><c>Li</c><c>   1</c></rc>
    <rc><c>Li</c><c>   1</c></rc>
    <rc><c>Li</c><c>   1</c></rc>
    <rc><c>Li</c><c>   1</c></rc>
    <rc><c>Li</c><c>   1</c></rc>
    <rc><c>Li</c><c>   1</c></rc>
    <rc><c>Li</c><c>   1</c></rc>
    <rc><c>Li</c><c>   1</c></rc>
    <rc><c>Li</c><c>   1</c></rc>
    <rc><c>Li</c><c>   1</c></rc>
    <rc><c>Li</c><c>   1</c></rc>
    <rc><c>P </c><c>   2</c></rc>
    <rc><c>P </c><c>   2</c></rc>
    <rc><c>P </c><c>   2</c></rc>
    <rc><c>P </c><c>   2</c></rc>
    <rc><c>S </c><c>   3</c></rc>
    <rc><c>S </c><c>   3</c></rc>
    <rc><c>S </c><c>   3</c></rc>
    <rc><c>S </c><c>   3</c></rc>
    <rc><c>S </c><c>   3</c></rc>
    <rc><c>S </c><c>   3</c></rc>
    <rc><c>S </c><c>   3</c></rc>
    <rc><c>S </c><c>   3</c></rc>
    <rc><c>S </c><c>   3</c></rc>
    <rc><c>S </c><c>   3</c></rc>
    <rc><c>S </c><c>   3</c></rc>
    <rc><c>S </c><c>   3</c></rc>
    <rc><c>S </c><c>   3</c></rc>
    <rc><c>S </c><c>   3</c></rc>
    <rc><c>S </c><c>   3</c></rc>
    <rc><c>S </c><c>   3</c></rc>
    <rc><c>S </c><c>   3</c></rc>
    <rc><c>S </c><c>   3</c></rc>
    <rc><c>S </c><c>   3</c></rc>
    <rc><c>S </c><c>   3</c></rc>
    <rc><c>Cl</c><c>   4</c></rc>
    <rc><c>Cl</c><c>   4</c></rc>
    <rc><c>Cl</c><c>   4</c></rc>
    <rc><c>Cl</c><c>   4</c></rc>
   </set>
  </array>
  <array name="atomtypes" >
   <dimension dim="1">type</dimension>
   <field type="int">atomspertype</field>
   <field type="string">element</field>
   <field>mass</field>
   <field>valence</field>
   <field type="string">pseudopotential</field>
   <set>
    <rc><c>  24</c><c>Li</c><c>      7.01000000</c><c>      3.00000000</c><c>  PAW_PBE Li_sv_GW 25Mar2010            </c></rc>
    <rc><c>   4</c><c>P </c><c>     30.97400000</c><c>      5.00000000</c><c>  PAW_PBE P_GW 19Mar2012                </c></rc>
    <rc><c>  20</c><c>S </c><c>     32.06600000</c><c>      6.00000000</c><c>  PAW_PBE S_GW 19Mar2012                </c></rc>
    <rc><c>   4</c><c>Cl</c><c>     35.45300000</c><c>      7.00000000</c><c>  PAW_PBE Cl_GW 19Mar2012               </c></rc>
   </set>
  </array>
 </atominfo>
 <structure name="initialpos" >
  <crystal>
   <varray name="basis" >
    <v>       9.68953769       0.00000000       0.00000000 </v>
    <v>       0.00000000       9.68953769       0.00000000 </v>
    <v>       0.00000000       0.00000000       9.68953769 </v>
   </varray>
   <i name="volume">    909.72298762 </i>
   <varray name="rec_basis" >
    <v>       0.10320410       0.00000000       0.00000000 </v>
    <v>       0.00000000       0.10320410       0.00000000 </v>
    <v>       0.00000000       0.00000000       0.10320410 </v>
   </varray>
  </crystal>
  <varray name="positions" >
   <v>       0.98016231       0.25900698       0.24112743 </v>
   <v>       0.96955420       0.72838559       0.77174882 </v>
   <v>       0.03884911       0.17899005       0.82785365 </v>
   <v>       0.03884911       0.67228076       0.32114436 </v>
   <v>       0.33288098       0.31786147       0.95428333 </v>
   <v>       0.17801581       0.80587026       0.02011879 </v>
   <v>       0.69852413       0.28045874       0.02687936 </v>
   <v>       0.68399167       0.69671451       0.99345670 </v>
   <v>       0.19155183       0.99090127       0.20132158 </v>
   <v>       0.27754435       0.01963652       0.70815521 </v>
   <v>       0.80104270       0.96231346       0.82940278 </v>
   <v>       0.82413881       0.01724786       0.19371855 </v>
   <v>       0.27754435       0.79197919       0.48049789 </v>
   <v>       0.19155183       0.29881283       0.50923313 </v>
   <v>       0.80104270       0.67073163       0.53782095 </v>
   <v>       0.82413881       0.30641586       0.48288655 </v>
   <v>       0.17801581       0.48001562       0.69426415 </v>
   <v>       0.33288098       0.54585108       0.18227293 </v>
   <v>       0.69852413       0.47325504       0.21967566 </v>
   <v>       0.68399167       0.50667771       0.80341990 </v>
   <v>       0.47677463       0.19800765       0.66972275 </v>
   <v>       0.47677463       0.83041166       0.30212675 </v>
   <v>       0.52766240       0.17532639       0.32480801 </v>
   <v>       0.53025972       0.81529133       0.68484308 </v>
   <v>       0.49502892       0.50316289       0.49763378 </v>
   <v>       0.49502892       0.00250063       0.99697152 </v>
   <v>       0.00587189       0.49335305       0.00678136 </v>
   <v>       0.98469263       0.98956936       0.51056504 </v>
   <v>       0.10744118       0.86674211       0.63339230 </v>
   <v>       0.10781253       0.11270473       0.38742968 </v>
   <v>       0.87119237       0.86262875       0.38699580 </v>
   <v>       0.87119237       0.11313861       0.63750566 </v>
   <v>       0.88534000       0.61684656       0.12931134 </v>
   <v>       0.88534000       0.37082307       0.88328784 </v>
   <v>       0.13683990       0.61179627       0.88833814 </v>
   <v>       0.14316336       0.37944032       0.12069408 </v>
   <v>       0.61326724       0.11886508       0.86491834 </v>
   <v>       0.62565930       0.89093374       0.12222879 </v>
   <v>       0.37967695       0.13036618       0.11960694 </v>
   <v>       0.37633139       0.87161529       0.88161272 </v>
   <v>       0.61326724       0.63521607       0.38126932 </v>
   <v>       0.62565930       0.37790561       0.60920067 </v>
   <v>       0.37633139       0.61852168       0.62851911 </v>
   <v>       0.37967695       0.38052747       0.36976823 </v>
   <v>       0.74052096       0.73684752       0.76328688 </v>
   <v>       0.75016017       0.24208601       0.25804840 </v>
   <v>       0.25109933       0.76264951       0.24683767 </v>
   <v>       0.25109933       0.25329673       0.73748490 </v>
   <v>       0.00221871       0.99557140       0.00733420 </v>
   <v>       0.00221871       0.49280021       0.50456300 </v>
   <v>       0.46117995       0.98851797       0.51161644 </v>
   <v>       0.53685300       0.48495968       0.01517473 </v>
  </varray>
 </structure>
 <calculation>
  <scstep>
   <time name="dav">    1.65    1.79</time>
   <time name="total">    2.12    2.28</time>
   <energy>
    <i name="alphaZ">    298.39578352 </i>
    <i name="ewald">  -8776.38905126 </i>
    <i name="hartreedc">  -2129.92391926 </i>
    <i name="XCdc">    533.85491950 </i>
    <i name="pawpsdc">   8141.38806575 </i>
    <i name="pawaedc">  -8271.61346273 </i>
    <i name="eentropy">     -0.00563222 </i>
    <i name="bandstr">   -911.36932089 </i>
    <i name="atom">  12703.13999606 </i>
    <i name="e_fr_energy">   1587.47737848 </i>
    <i name="e_wo_entrp">   1587.48301070 </i>
    <i name="e_0_energy">   1587.48019459 </i>
   </energy>
  </scstep>
  <scstep>
   <time name="dav">    1.94    1.96</time>
   <time name="total">    1.94    1.96</time>
   <energy>
    <i name="e_fr_energy">    -57.71351242 </i>
    <i name="e_wo_entrp">    -57.71351242 </i>
    <i name="e_0_energy">    -57.71351242 </i>
   </energy>
  </scstep>
  <scstep>
   <time name="dav">    2.16    2.21</time>
   <time name="total">    2.17    2.21</time>
   <energy>
    <i name="e_fr_energy">   -229.10978238 </i>
    <i name="e_wo_entrp">   -229.10978238 </i>
    <i name="e_0_energy">   -229.10978238 </i>
   </energy>
  </scstep>
  <scstep>
   <time name="dav">    2.32    2.42</time>
   <time name="total">    2.32    2.42</time>
   <energy>
    <i name="e_fr_energy">   -241.75450481 </i>
    <i name="e_wo_entrp">   -241.75450481 </i>
    <i name="e_0_energy">   -241.75450481 </i>
   </energy>
  </scstep>
  <scstep>
   <time name="dav">    2.21    2.25</time>
   <time name="total">    2.21    2.25</time>
   <energy>
    <i name="e_fr_energy">   -241.97462935 </i>
    <i name="e_wo_entrp">   -241.97462935 </i>
    <i name="e_0_energy">   -241.97462935 </i>
   </energy>
  </scstep>
  <scstep>
   <time name="dav">    2.25    2.27</time>
   <time name="total">    2.25    2.27</time>
   <energy>
    <i name="e_fr_energy">   -241.98408207 </i>
    <i name="e_wo_entrp">   -241.98408207 </i>
    <i name="e_0_energy">   -241.98408207 </i>
   </energy>
  </scstep>
  <scstep>
   <time name="dav">    2.34    2.37</time>
   <time name="total">    2.34    2.37</time>
   <energy>
    <i name="e_fr_energy">   -241.98454297 </i>
    <i name="e_wo_entrp">   -241.98454297 </i>
    <i name="e_0_energy">   -241.98454297 </i>
   </energy>
  </scstep>
  <scstep>
   <time name="dav">    2.22    2.24</time>
   <time name="total">    2.22    2.24</time>
   <energy>
    <i name="e_fr_energy">   -241.98457305 </i>
    <i name="e_wo_entrp">   -241.98457305 </i>
    <i name="e_0_energy">   -241.98457305 </i>
   </energy>
  </scstep>
  <scstep>
   <time name="dav">    2.24    2.26</time>
   <time name="total">    2.24    2.26</time>
   <energy>
    <i name="e_fr_energy">   -241.98457517 </i>
    <i name="e_wo_entrp">   -241.98457517 </i>
    <i name="e_0_energy">   -241.98457517 </i>
   </energy>
  </scstep>
  <scstep>
   <time name="dav">    1.47    1.50</time>
   <time name="total">    1.61    1.67</time>
   <energy>
    <i name="e_fr_energy">   -241.98457528 </i>
    <i name="e_wo_entrp">   -241.98457528 </i>
    <i name="e_0_energy">   -241.98457528 </i>
   </energy>
  </scstep>
  <scstep>
   <time name="diag">    0.28    0.28</time>
   <time name="diis">    0.87    0.88</time>
   <time name="orth">    0.05    0.05</time>
   <time name="total">    1.78    1.83</time>
   <energy>
    <i name="e_fr_energy">   -235.19864875 </i>
    <i name="e_wo_entrp">   -235.19864875 </i>
    <i name="e_0_energy">   -235.19864875 </i>
   </energy>
  </scstep>
  <scstep>
   <time name="diag">    0.27    0.27</time>
   <time name="diis">    0.92    0.93</time>
   <time name="orth">    0.05    0.05</time>
   <time name="total">    1.83    1.87</time>
   <energy>
    <i name="e_fr_energy">   -255.86292257 </i>
    <i name="e_wo_entrp">   -255.86292257 </i>
    <i name="e_0_energy">   -255.86292257 </i>
   </energy>
  </scstep>
  <scstep>
   <time name="diag">    0.27    0.27</time>
   <time name="diis">    0.91    0.92</time>
   <time name="orth">    0.05    0.05</time>
   <time name="total">    1.81    1.85</time>
   <energy>
    <i name="e_fr_energy">   -258.35963910 </i>
    <i name="e_wo_entrp">   -258.35963910 </i>
    <i name="e_0_energy">   -258.35963910 </i>
   </energy>
  </scstep>
  <scstep>
   <time name="diag">    0.27    0.27</time>
   <time name="diis">    1.16    1.17</time>
   <time name="orth">    0.05    0.05</time>
   <time name="total">    2.05    2.09</time>
   <energy>
    <i name="e_fr_energy">   -258.54676106 </i>
    <i name="e_wo_entrp">   -258.54676106 </i>
    <i name="e_0_energy">   -258.54676106 </i>
   </energy>
  </scstep>
  <scstep>
   <time name="diag">    0.27    0.27</time>
   <time name="diis">    0.96    0.97</time>
   <time name="orth">    0.05    0.05</time>
   <time name="total">    1.86    1.90</time>
   <energy>
    <i name="e_fr_energy">   -258.51637388 </i>
    <i name="e_wo_entrp">   -258.51637388 </i>
    <i name="e_0_energy">   -258.51637388 </i>
   </energy>
  </scstep>
  <scstep>
   <time name="diag">    0.27    0.27</time>
   <time name="diis">    0.96    0.97</time>
   <time name="orth">    0.05    0.05</time>
   <time name="total">    1.86    1.89</time>
   <energy>
    <i name="e_fr_energy">   -258.53694277 </i>
    <i name="e_wo_entrp">   -258.53694277 </i>
    <i name="e_0_energy">   -258.53694277 </i>
   </energy>
  </scstep>
  <scstep>
   <time name="diag">    0.27    0.27</time>
   <time name="diis">    1.08    1.09</time>
   <time name="orth">    0.05    0.05</time>
   <time name="total">    1.98    2.01</time>
   <energy>
    <i name="e_fr_energy">   -258.54283203 </i>
    <i name="e_wo_entrp">   -258.54283203 </i>
    <i name="e_0_energy">   -258.54283203 </i>
   </energy>
  </scstep>
  <scstep>
   <time name="diag">    0.27    0.27</time>
   <time name="diis">    1.06    1.07</time>
   <time name="orth">    0.05    0.05</time>
   <time name="total">    1.95    1.98</time>
   <energy>
    <i name="e_fr_energy">   -258.54414034 </i>
    <i name="e_wo_entrp">   -258.54414034 </i>
    <i name="e_0_energy">   -258.54414034 </i>
   </energy>
  </scstep>
  <scstep>
   <time name="diag">    0.27    0.27</time>
   <time name="diis">    1.23    1.24</time>
   <time name="orth">    0.05    0.05</time>
   <time name="total">    2.12    2.16</time>
   <energy>
    <i name="e_fr_energy">   -258.54462595 </i>
    <i name="e_wo_entrp">   -258.54462595 </i>
    <i name="e_0_energy">   -258.54462595 </i>
   </energy>
  </scstep>
  <scstep>
   <time name="diag">    0.27    0.27</time>
   <time name="diis">    1.18    1.20</time>
   <time name="orth">    0.05    0.05</time>
   <time name="total">    2.07    2.11</time>
   <energy>
    <i name="e_fr_energy">   -258.54471948 </i>
    <i name="e_wo_entrp">   -258.54471948 </i>
    <i name="e_0_energy">   -258.54471948 </i>
   </energy>
  </scstep>
  <scstep>
   <time name="diag">    0.27    0.27</time>
   <time name="diis">    1.06    1.07</time>
   <time name="orth">    0.05    0.05</time>
   <time name="total">    1.95    1.98</time>
   <energy>
    <i name="e_fr_energy">   -258.54473807 </i>
    <i name="e_wo_entrp">   -258.54473807 </i>
    <i name="e_0_energy">   -258.54473807 </i>
   </energy>
  </scstep>
  <scstep>
   <time name="diag">    0.27    0.27</time>
   <time name="diis">    1.18    1.19</time>
   <time name="orth">    0.05    0.05</time>
   <time name="total">    2.06    2.10</time>
   <energy>
    <i name="e_fr_energy">   -258.54474456 </i>
    <i name="e_wo_entrp">   -258.54474456 </i>
    <i name="e_0_energy">   -258.54474456 </i>
   </energy>
  </scstep>
  <scstep>
   <time name="diag">    0.27    0.27</time>
   <time name="diis">    0.96    0.97</time>
   <time name="orth">    0.05    0.05</time>
   <time name="total">    1.85    1.88</time>
   <energy>
    <i name="e_fr_energy">   -258.54474440 </i>
    <i name="e_wo_entrp">   -258.54474440 </i>
    <i name="e_0_energy">   -258.54474440 </i>
   </energy>
  </scstep>
  <scstep>
   <time name="diag">    0.27    0.27</time>
   <time name="diis">    0.72    0.73</time>
   <time name="orth">    0.05    0.05</time>
   <time name="total">    1.51    1.52</time>
   <energy>
    <i name="alphaZ">    298.39578352 </i>
    <i name="ewald">  -8776.38905126 </i>
    <i name="hartreedc">  -2231.55778944 </i>
    <i name="XCdc">    537.69675663 </i>
    <i name="pawpsdc">   9831.51103843 </i>
    <i name="pawaedc">  -9975.60457413 </i>
    <i name="eentropy">     -0.00000000 </i>
    <i name="bandstr">  -2645.73690354 </i>
    <i name="atom">  12703.13999606 </i>
    <i name="e_fr_energy">   -258.54474372 </i>
    <i name="e_wo_entrp">   -258.54474372 </i>
    <i name="e_0_energy">   -258.54474372 </i>
   </energy>
  </scstep>
  <structure>
   <crystal>
    <varray name="basis" >
     <v>       9.68953769       0.00000000       0.00000000 </v>
     <v>       0.00000000       9.68953769       0.00000000 </v>
     <v>       0.00000000       0.00000000       9.68953769 </v>
    </varray>
    <i name="volume">    909.72298762 </i>
    <varray name="rec_basis" >
     <v>       0.10320410       0.00000000       0.00000000 </v>
     <v>       0.00000000       0.10320410       0.00000000 </v>
     <v>       0.00000000       0.00000000       0.10320410 </v>
    </varray>
   </crystal>
   <varray name="positions" >
    <v>       0.98016231       0.25900698       0.24112743 </v>
    <v>       0.96955420       0.72838559       0.77174882 </v>
    <v>       0.03884911       0.17899005       0.82785365 </v>
    <v>       0.03884911       0.67228076       0.32114436 </v>
    <v>       0.33288098       0.31786147       0.95428333 </v>
    <v>       0.17801581       0.80587026       0.02011879 </v>
    <v>       0.69852413       0.28045874       0.02687936 </v>
    <v>       0.68399167       0.69671451       0.99345670 </v>
    <v>       0.19155183       0.99090127       0.20132158 </v>
    <v>       0.27754435       0.01963652       0.70815521 </v>
    <v>       0.80104270       0.96231346       0.82940278 </v>
    <v>       0.82413881       0.01724786       0.19371855 </v>
    <v>       0.27754435       0.79197919       0.48049789 </v>
    <v>       0.19155183       0.29881283       0.50923313 </v>
    <v>       0.80104270       0.67073163       0.53782095 </v>
    <v>       0.82413881       0.30641586       0.48288655 </v>
    <v>       0.17801581       0.48001562       0.69426415 </v>
    <v>       0.33288098       0.54585108       0.18227293 </v>
    <v>       0.69852413       0.47325504       0.21967566 </v>
    <v>       0.68399167       0.50667771       0.80341990 </v>
    <v>       0.47677463       0.19800765       0.66972275 </v>
    <v>       0.47677463       0.83041166       0.30212675 </v>
    <v>       0.52766240       0.17532639       0.32480801 </v>
    <v>       0.53025972       0.81529133       0.68484308 </v>
    <v>       0.49502892       0.50316289       0.49763378 </v>
    <v>       0.49502892       0.00250063       0.99697152 </v>
    <v>       0.00587189       0.49335305       0.00678136 </v>
    <v>       0.98469263       0.98956936       0.51056504 </v>
    <v>       0.10744118       0.86674211       0.63339230 </v>
    <v>       0.10781253       0.11270473       0.38742968 </v>
    <v>       0.87119237       0.86262875       0.38699580 </v>
    <v>       0.87119237       0.11313861       0.63750566 </v>
    <v>       0.88534000       0.61684656       0.12931134 </v>
    <v>       0.88534000       0.37082307       0.88328784 </v>
    <v>       0.13683990       0.61179627       0.88833814 </v>
    <v>       0.14316336       0.37944032       0.12069408 </v>
    <v>       0.61326724       0.11886508       0.86491834 </v>
    <v>       0.62565930       0.89093374       0.12222879 </v>
    <v>       0.37967695       0.13036618       0.11960694 </v>
    <v>       0.37633139       0.87161529       0.88161272 </v>
    <v>       0.61326724       0.63521607       0.38126932 </v>
    <v>       0.62565930       0.37790561       0.60920067 </v>
    <v>       0.37633139       0.61852168       0.62851911 </v>
    <v>       0.37967695       0.38052747       0.36976823 </v>
    <v>       0.74052096       0.73684752       0.76328688 </v>
    <v>       0.75016017       0.24208601       0.25804840 </v>
    <v>       0.25109933       0.76264951       0.24683767 </v>
    <v>       0.25109933       0.25329673       0.73748490 </v>
    <v>       0.00221871       0.99557140       0.00733420 </v>
    <v>       0.00221871       0.49280021       0.50456300 </v>
    <v>       0.46117995       0.98851797       0.51161644 </v>
    <v>       0.53685300       0.48495968       0.01517473 </v>
   </varray>
  </structure>
  <varray name="forces" >
   <v>      -0.00019696       0.00016199      -0.00016199 </v>
   <v>       0.00012512      -0.00051420       0.00051420 </v>
   <v>      -0.00004882       0.00016734       0.00001999 </v>
   <v>      -0.00004882      -0.00001999      -0.00016734 </v>
   <v>       0.00055655       0.00092542      -0.00049767 </v>
   <v>      -0.00095666       0.00046380       0.00007830 </v>
   <v>      -0.00006639       0.00010688      -0.00046068 </v>
   <v>      -0.00106716       0.00013916      -0.00009079 </v>
   <v>       0.00005871       0.00034057      -0.00004405 </v>
   <v>       0.00015140      -0.00031355       0.00094020 </v>
   <v>       0.00043329      -0.00037999       0.00199105 </v>
   <v>       0.00071958       0.00005863       0.00097954 </v>
   <v>       0.00015140      -0.00094020       0.00031355 </v>
   <v>       0.00005871       0.00004405      -0.00034057 </v>
   <v>       0.00043329      -0.00199105       0.00037999 </v>
   <v>       0.00071958      -0.00097954      -0.00005863 </v>
   <v>      -0.00095666      -0.00007830      -0.00046380 </v>
   <v>       0.00055655       0.00049767      -0.00092542 </v>
   <v>      -0.00006639       0.00046068      -0.00010688 </v>
   <v>      -0.00106716       0.00009079      -0.00013916 </v>
   <v>      -0.00006501      -0.00007460      -0.00103251 </v>
   <v>      -0.00006501       0.00103251       0.00007460 </v>
   <v>       0.00002685      -0.00052207       0.00052207 </v>
   <v>       0.00047306       0.00032567      -0.00032567 </v>
   <v>      -0.00026880      -0.00023219      -0.00075651 </v>
   <v>      -0.00026880       0.00075651       0.00023219 </v>
   <v>       0.00009114      -0.00013963       0.00013963 </v>
   <v>      -0.00018739      -0.00030066       0.00030066 </v>
   <v>       0.00045012      -0.00061119       0.00061119 </v>
   <v>      -0.00006079       0.00044400      -0.00044400 </v>
   <v>      -0.00046662      -0.00074627       0.00032455 </v>
   <v>      -0.00046662      -0.00032455       0.00074627 </v>
   <v>      -0.00029567       0.00083198       0.00011023 </v>
   <v>      -0.00029567      -0.00011023      -0.00083198 </v>
   <v>       0.00113281      -0.00029051       0.00029051 </v>
   <v>       0.00060904      -0.00039403       0.00039403 </v>
   <v>       0.00005353       0.00032864      -0.00087783 </v>
   <v>       0.00075797       0.00038065       0.00036348 </v>
   <v>      -0.00025117       0.00073539       0.00022804 </v>
   <v>      -0.00005233      -0.00093920       0.00012809 </v>
   <v>       0.00005353       0.00087783      -0.00032864 </v>
   <v>       0.00075797      -0.00036348      -0.00038065 </v>
   <v>      -0.00005233      -0.00012809       0.00093920 </v>
   <v>      -0.00025117      -0.00022804      -0.00073539 </v>
   <v>      -0.00000992      -0.00004422       0.00004422 </v>
   <v>      -0.00034861       0.00008607      -0.00008607 </v>
   <v>       0.00004633       0.00018910      -0.00012566 </v>
   <v>       0.00004633       0.00012566      -0.00018910 </v>
   <v>      -0.00009583       0.00039607       0.00043951 </v>
   <v>      -0.00009583      -0.00043951      -0.00039607 </v>
   <v>       0.00092767       0.00069239      -0.00069239 </v>
   <v>      -0.00131795       0.00044582      -0.00044582 </v>
  </varray>
  <varray name="stress" >
   <v>      -1.81971150       2.31928590      -2.31928590 </v>
   <v>       2.31928551       0.94717458       4.73294610 </v>
   <v>      -2.31928551       4.73294610       0.94717458 </v>
  </varray>
  <energy>
   <i name="e_fr_energy">   -271.99003402 </i>
   <i name="e_wo_entrp">   -271.99003402 </i>
   <i name="e_0_energy">   -271.99003402 </i>
  </energy>
  <time name="totalsc">   50.80   51.94</time>
 </calculation>
 <calculation>
  <scstep>
   <time name="dav">    1.66    1.68</time>
   <time name="total">    2.24    2.28</time>
   <energy>
    <i name="alphaZ">    298.39578352 </i>
    <i name="ewald">  -8776.41057655 </i>
    <i name="hartreedc">  -2231.54442901 </i>
    <i name="XCdc">    537.69643483 </i>
    <i name="pawpsdc">   9831.50709794 </i>
    <i name="pawaedc">  -9975.60058137 </i>
    <i name="eentropy">     -0.00000000 </i>
    <i name="bandstr">  -2645.72847008 </i>
    <i name="atom">  12703.13999606 </i>
    <i name="e_fr_energy">   -258.54474467 </i>
    <i name="e_wo_entrp">   -258.54474467 </i>
    <i name="e_0_energy">   -258.54474467 </i>
   </energy>
  </scstep>
  <scstep>
   <time name="diag">    0.28    0.28</time>
   <time name="diis">    0.62    0.63</time>
   <time name="orth">    0.05    0.05</time>
   <time name="total">    1.40    1.41</time>
   <energy>
    <i name="alphaZ">    298.39578352 </i>
    <i name="ewald">  -8776.41057655 </i>
    <i name="hartreedc">  -2231.54549299 </i>
    <i name="XCdc">    537.69622152 </i>
    <i name="pawpsdc">   9831.46994982 </i>
    <i name="pawaedc">  -9975.56293679 </i>
    <i name="eentropy">     -0.00000000 </i>
    <i name="bandstr">  -2645.72768943 </i>
    <i name="atom">  12703.13999606 </i>
    <i name="e_fr_energy">   -258.54474483 </i>
    <i name="e_wo_entrp">   -258.54474483 </i>
    <i name="e_0_energy">   -258.54474483 </i>
   </energy>
  </scstep>
  <structure>
   <crystal>
    <varray name="basis" >
     <v>       9.68953769       0.00000000       0.00000000 </v>
     <v>       0.00000000       9.68953769       0.00000000 </v>
     <v>       0.00000000       0.00000000       9.68953769 </v>
    </varray>
    <i name="volume">    909.72298762 </i>
    <varray name="rec_basis" >
     <v>       0.10320410       0.00000000       0.00000000 </v>
     <v>       0.00000000       0.10320410       0.00000000 </v>
     <v>       0.00000000       0.00000000       0.10320410 </v>
    </varray>
   </crystal>
   <varray name="positions" >
    <v>       0.98016192       0.25900730       0.24112711 </v>
    <v>       0.96955445       0.72838456       0.77174984 </v>
    <v>       0.03884901       0.17899038       0.82785369 </v>
    <v>       0.03884901       0.67228072       0.32114403 </v>
    <v>       0.33288209       0.31786332       0.95428234 </v>
    <v>       0.17801391       0.80587118       0.02011894 </v>
    <v>       0.69852399       0.28045896       0.02687845 </v>
    <v>       0.68398955       0.69671479       0.99345651 </v>
    <v>       0.19155195       0.99090195       0.20132149 </v>
    <v>       0.27754465       0.01963590       0.70815709 </v>
    <v>       0.80104357       0.96231270       0.82940674 </v>
    <v>       0.82414024       0.01724797       0.19372050 </v>
    <v>       0.27754465       0.79197732       0.48049851 </v>
    <v>       0.19155195       0.29881291       0.50923246 </v>
    <v>       0.80104357       0.67072766       0.53782171 </v>
    <v>       0.82414024       0.30641391       0.48288643 </v>
    <v>       0.17801391       0.48001546       0.69426322 </v>
    <v>       0.33288209       0.54585207       0.18227109 </v>
    <v>       0.69852399       0.47325596       0.21967545 </v>
    <v>       0.68398955       0.50667789       0.80341962 </v>
    <v>       0.47677450       0.19800750       0.66972069 </v>
    <v>       0.47677450       0.83041371       0.30212690 </v>
    <v>       0.52766246       0.17532535       0.32480905 </v>
    <v>       0.53026066       0.81529198       0.68484243 </v>
    <v>       0.49502838       0.50316243       0.49763227 </v>
    <v>       0.49502838       0.00250214       0.99697198 </v>
    <v>       0.00587207       0.49335277       0.00678163 </v>
    <v>       0.98469226       0.98956876       0.51056564 </v>
    <v>       0.10744208       0.86674089       0.63339352 </v>
    <v>       0.10781241       0.11270561       0.38742879 </v>
    <v>       0.87119144       0.86262726       0.38699645 </v>
    <v>       0.87119144       0.11313796       0.63750714 </v>
    <v>       0.88533941       0.61684822       0.12931156 </v>
    <v>       0.88533941       0.37082285       0.88328619 </v>
    <v>       0.13684216       0.61179569       0.88833872 </v>
    <v>       0.14316457       0.37943954       0.12069487 </v>
    <v>       0.61326734       0.11886574       0.86491659 </v>
    <v>       0.62566081       0.89093450       0.12222952 </v>
    <v>       0.37967645       0.13036764       0.11960739 </v>
    <v>       0.37633128       0.87161342       0.88161298 </v>
    <v>       0.61326734       0.63521782       0.38126867 </v>
    <v>       0.62566081       0.37790489       0.60919991 </v>
    <v>       0.37633128       0.61852143       0.62852098 </v>
    <v>       0.37967645       0.38052701       0.36976677 </v>
    <v>       0.74052094       0.73684743       0.76328697 </v>
    <v>       0.75015948       0.24208618       0.25804823 </v>
    <v>       0.25109942       0.76264988       0.24683742 </v>
    <v>       0.25109942       0.25329698       0.73748452 </v>
    <v>       0.00221852       0.99557219       0.00733507 </v>
    <v>       0.00221852       0.49279933       0.50456221 </v>
    <v>       0.46118179       0.98851935       0.51161506 </v>
    <v>       0.53685038       0.48496057       0.01517384 </v>
   </varray>
  </structure>
  <varray name="forces" >
   <v>      -0.00011006       0.00008985      -0.00008985 </v>
   <v>       0.00009207      -0.00030974       0.00030974 </v>
   <v>      -0.00002828       0.00011115      -0.00000762 </v>
   <v>      -0.00002828       0.00000762      -0.00011115 </v>
   <v>       0.00033467       0.00059005      -0.00036946 </v>
   <v>      -0.00061049       0.00029554       0.00001774 </v>
   <v>      -0.00005141       0.00008150      -0.00029140 </v>
   <v>      -0.00066832       0.00009377      -0.00007333 </v>
   <v>       0.00002406       0.00020677      -0.00004250 </v>
   <v>       0.00009760      -0.00017494       0.00053005 </v>
   <v>       0.00025733      -0.00021400       0.00121108 </v>
   <v>       0.00042450       0.00004783       0.00057878 </v>
   <v>       0.00009760      -0.00053005       0.00017494 </v>
   <v>       0.00002406       0.00004250      -0.00020677 </v>
   <v>       0.00025733      -0.00121108       0.00021400 </v>
   <v>       0.00042450      -0.00057878      -0.00004783 </v>
   <v>      -0.00061049      -0.00001774      -0.00029554 </v>
   <v>       0.00033467       0.00036946      -0.00059005 </v>
   <v>      -0.00005141       0.00029140      -0.00008150 </v>
   <v>      -0.00066832       0.00007333      -0.00009377 </v>
   <v>      -0.00004536      -0.00002287      -0.00066282 </v>
   <v>      -0.00004536       0.00066282       0.00002287 </v>
   <v>       0.00003910      -0.00031654       0.00031654 </v>
   <v>       0.00027802       0.00023874      -0.00023874 </v>
   <v>      -0.00014077      -0.00004012      -0.00050786 </v>
   <v>      -0.00014077       0.00050786       0.00004012 </v>
   <v>      -0.00005328      -0.00011878       0.00011878 </v>
   <v>      -0.00000226      -0.00025167       0.00025167 </v>
   <v>       0.00031462      -0.00019192       0.00019192 </v>
   <v>      -0.00014466       0.00013826      -0.00013826 </v>
   <v>      -0.00015388      -0.00042393       0.00014544 </v>
   <v>      -0.00015388      -0.00014544       0.00042393 </v>
   <v>      -0.00019823       0.00036379      -0.00007343 </v>
   <v>      -0.00019823       0.00007343      -0.00036379 </v>
   <v>       0.00042723      -0.00013737       0.00013737 </v>
   <v>       0.00010986      -0.00027346       0.00027346 </v>
   <v>      -0.00003999       0.00016212      -0.00041020 </v>
   <v>       0.00031659       0.00030852       0.00003651 </v>
   <v>      -0.00022554       0.00044752       0.00013570 </v>
   <v>       0.00006578      -0.00028570       0.00006903 </v>
   <v>      -0.00003999       0.00041020      -0.00016212 </v>
   <v>       0.00031659      -0.00003651      -0.00030852 </v>
   <v>       0.00006578      -0.00006903       0.00028570 </v>
   <v>      -0.00022554      -0.00013570      -0.00044752 </v>
   <v>       0.00014223      -0.00008665       0.00008665 </v>
   <v>      -0.00004437       0.00024270      -0.00024270 </v>
   <v>      -0.00001230       0.00026495       0.00009301 </v>
   <v>      -0.00001230      -0.00009301      -0.00026495 </v>
   <v>       0.00006423       0.00011123       0.00019949 </v>
   <v>       0.00006423      -0.00019949      -0.00011123 </v>
   <v>      -0.00057618      -0.00030919       0.00030919 </v>
   <v>       0.00070729      -0.00005922       0.00005922 </v>
  </varray>
  <varray name="stress" >
   <v>      -1.83284663       2.31950214      -2.31950214 </v>
   <v>       2.31950170       0.93411169       4.73329289 </v>
   <v>      -2.31950170       4.73329289       0.93411169 </v>
  </varray>
  <energy>
   <i name="e_fr_energy">   -271.99003521 </i>
   <i name="e_wo_entrp">   -271.99003521 </i>
   <i name="e_0_energy">   -271.99003521 </i>
  </energy>
  <time name="totalsc">    6.35    6.49</time>
 </calculation>
 <calculation>
  <scstep>
   <time name="dav">    1.61    1.63</time>
   <time name="total">    2.18    2.24</time>
   <energy>
    <i name="alphaZ">    298.39578352 </i>
    <i name="ewald">  -8776.42910829 </i>
    <i name="hartreedc">  -2231.53110578 </i>
    <i name="XCdc">    537.69572921 </i>
    <i name="pawpsdc">   9831.44695369 </i>
    <i name="pawaedc">  -9975.53951207 </i>
    <i name="eentropy">     -0.00000000 </i>
    <i name="bandstr">  -2645.72348161 </i>
    <i name="atom">  12703.13999606 </i>
    <i name="e_fr_energy">   -258.54474526 </i>
    <i name="e_wo_entrp">   -258.54474526 </i>
    <i name="e_0_energy">   -258.54474526 </i>
   </energy>
  </scstep>
  <scstep>
   <time name="diag">    0.27    0.28</time>
   <time name="diis">    0.61    0.62</time>
   <time name="orth">    0.05    0.05</time>
   <time name="total">    1.38    1.39</time>
   <energy>
    <i name="alphaZ">    298.39578352 </i>
    <i name="ewald">  -8776.42910829 </i>
    <i name="hartreedc">  -2231.53001380 </i>
    <i name="XCdc">    537.69557303 </i>
    <i name="pawpsdc">   9831.41752049 </i>
    <i name="pawaedc">  -9975.50982551 </i>
    <i name="eentropy">     -0.00000000 </i>
    <i name="bandstr">  -2645.72467079 </i>
    <i name="atom">  12703.13999606 </i>
    <i name="e_fr_energy">   -258.54474529 </i>
    <i name="e_wo_entrp">   -258.54474529 </i>
    <i name="e_0_energy">   -258.54474529 </i>
   </energy>
  </scstep>
  <structure>
   <crystal>
    <varray name="basis" >
     <v>       9.68953769       0.00000000       0.00000000 </v>
     <v>       0.00000000       9.68953769       0.00000000 </v>
     <v>       0.00000000       0.00000000       9.68953769 </v>
    </varray>
    <i name="volume">    909.72298762 </i>
    <varray name="rec_basis" >
     <v>       0.10320410       0.00000000       0.00000000 </v>
     <v>       0.00000000       0.10320410       0.00000000 </v>
     <v>       0.00000000       0.00000000       0.10320410 </v>
    </varray>
   </crystal>
   <varray name="positions" >
    <v>       0.98016158       0.25900758       0.24112683 </v>
    <v>       0.96955466       0.72838368       0.77175073 </v>
    <v>       0.03884893       0.17899067       0.82785372 </v>
    <v>       0.03884893       0.67228069       0.32114374 </v>
    <v>       0.33288304       0.31786490       0.95428148 </v>
    <v>       0.17801227       0.80587198       0.02011908 </v>
    <v>       0.69852388       0.28045914       0.02687766 </v>
    <v>       0.68398772       0.69671502       0.99345636 </v>
    <v>       0.19155205       0.99090253       0.20132142 </v>
    <v>       0.27754491       0.01963536       0.70815870 </v>
    <v>       0.80104431       0.96231205       0.82941016 </v>
    <v>       0.82414148       0.01724807       0.19372218 </v>
    <v>       0.27754491       0.79197571       0.48049905 </v>
    <v>       0.19155205       0.29881299       0.50923187 </v>
    <v>       0.80104431       0.67072425       0.53782236 </v>
    <v>       0.82414148       0.30641223       0.48288633 </v>
    <v>       0.17801227       0.48001533       0.69426243 </v>
    <v>       0.33288304       0.54585292       0.18226950 </v>
    <v>       0.69852388       0.47325675       0.21967527 </v>
    <v>       0.68398772       0.50667805       0.80341938 </v>
    <v>       0.47677439       0.19800738       0.66971892 </v>
    <v>       0.47677439       0.83041548       0.30212703 </v>
    <v>       0.52766250       0.17532446       0.32480995 </v>
    <v>       0.53026147       0.81529254       0.68484187 </v>
    <v>       0.49502792       0.50316203       0.49763097 </v>
    <v>       0.49502792       0.00250343       0.99697238 </v>
    <v>       0.00587223       0.49335253       0.00678187 </v>
    <v>       0.98469193       0.98956825       0.51056616 </v>
    <v>       0.10744285       0.86673984       0.63339456 </v>
    <v>       0.10781230       0.11270637       0.38742803 </v>
    <v>       0.87119064       0.86262598       0.38699700 </v>
    <v>       0.87119064       0.11313740       0.63750842 </v>
    <v>       0.88533891       0.61684965       0.12931174 </v>
    <v>       0.88533891       0.37082266       0.88328476 </v>
    <v>       0.13684410       0.61179519       0.88833921 </v>
    <v>       0.14316561       0.37943886       0.12069554 </v>
    <v>       0.61326744       0.11886630       0.86491509 </v>
    <v>       0.62566211       0.89093515       0.12223014 </v>
    <v>       0.37967602       0.13036890       0.11960778 </v>
    <v>       0.37633119       0.87161181       0.88161320 </v>
    <v>       0.61326744       0.63521932       0.38126810 </v>
    <v>       0.62566211       0.37790427       0.60919925 </v>
    <v>       0.37633119       0.61852121       0.62852259 </v>
    <v>       0.37967602       0.38052662       0.36976550 </v>
    <v>       0.74052092       0.73684736       0.76328705 </v>
    <v>       0.75015888       0.24208633       0.25804808 </v>
    <v>       0.25109950       0.76265021       0.24683721 </v>
    <v>       0.25109950       0.25329720       0.73748420 </v>
    <v>       0.00221836       0.99557287       0.00733583 </v>
    <v>       0.00221836       0.49279858       0.50456153 </v>
    <v>       0.46118338       0.98852054       0.51161387 </v>
    <v>       0.53684812       0.48496133       0.01517307 </v>
   </varray>
  </structure>
  <varray name="forces" >
   <v>      -0.00014936       0.00011875      -0.00011875 </v>
   <v>       0.00009976      -0.00031932       0.00031932 </v>
   <v>      -0.00002216       0.00008695      -0.00000936 </v>
   <v>      -0.00002216       0.00000936      -0.00008695 </v>
   <v>       0.00039911       0.00072613      -0.00042730 </v>
   <v>      -0.00065474       0.00031360       0.00001459 </v>
   <v>      -0.00005340       0.00005902      -0.00030832 </v>
   <v>      -0.00079159       0.00011886      -0.00008978 </v>
   <v>       0.00002033       0.00021408      -0.00004945 </v>
   <v>       0.00009787      -0.00019030       0.00063638 </v>
   <v>       0.00030269      -0.00024578       0.00143222 </v>
   <v>       0.00049510       0.00005845       0.00068169 </v>
   <v>       0.00009787      -0.00063638       0.00019030 </v>
   <v>       0.00002033       0.00004945      -0.00021408 </v>
   <v>       0.00030269      -0.00143222       0.00024578 </v>
   <v>       0.00049510      -0.00068169      -0.00005845 </v>
   <v>      -0.00065474      -0.00001459      -0.00031360 </v>
   <v>       0.00039911       0.00042730      -0.00072613 </v>
   <v>      -0.00005340       0.00030832      -0.00005902 </v>
   <v>      -0.00079159       0.00008978      -0.00011886 </v>
   <v>      -0.00003428      -0.00002304      -0.00073784 </v>
   <v>      -0.00003428       0.00073784       0.00002304 </v>
   <v>       0.00004978      -0.00035799       0.00035799 </v>
   <v>       0.00029582       0.00024381      -0.00024381 </v>
   <v>       0.00000045       0.00009176      -0.00021854 </v>
   <v>       0.00000045       0.00021854      -0.00009176 </v>
   <v>      -0.00005139      -0.00010359       0.00010359 </v>
   <v>       0.00009613      -0.00021889       0.00021889 </v>
   <v>       0.00015831      -0.00005232       0.00005232 </v>
   <v>      -0.00032592      -0.00002805       0.00002805 </v>
   <v>      -0.00008029      -0.00028965       0.00025563 </v>
   <v>      -0.00008029      -0.00025563       0.00028965 </v>
   <v>      -0.00003199       0.00022547      -0.00021926 </v>
   <v>      -0.00003199       0.00021926      -0.00022547 </v>
   <v>       0.00034756      -0.00023849       0.00023849 </v>
   <v>      -0.00006456      -0.00014520       0.00014520 </v>
   <v>      -0.00017760       0.00005513      -0.00026630 </v>
   <v>       0.00014788       0.00045887      -0.00009879 </v>
   <v>      -0.00017004       0.00041227       0.00007229 </v>
   <v>       0.00023195      -0.00011818       0.00026072 </v>
   <v>      -0.00017760       0.00026630      -0.00005513 </v>
   <v>       0.00014788       0.00009879      -0.00045887 </v>
   <v>       0.00023195      -0.00026072       0.00011818 </v>
   <v>      -0.00017004      -0.00007229      -0.00041227 </v>
   <v>       0.00013037      -0.00008807       0.00008807 </v>
   <v>      -0.00009027       0.00021408      -0.00021408 </v>
   <v>      -0.00001105       0.00025731       0.00005967 </v>
   <v>      -0.00001105      -0.00005967      -0.00025731 </v>
   <v>       0.00004606       0.00015478       0.00025137 </v>
   <v>       0.00004606      -0.00025137      -0.00015478 </v>
   <v>      -0.00036575      -0.00017709       0.00017709 </v>
   <v>       0.00044096       0.00002626      -0.00002626 </v>
  </varray>
  <varray name="stress" >
   <v>      -1.84037708       2.31954617      -2.31954617 </v>
   <v>       2.31954579       0.92684824       4.73343910 </v>
   <v>      -2.31954579       4.73343910       0.92684824 </v>
  </varray>
  <energy>
   <i name="e_fr_energy">   -271.99003574 </i>
   <i name="e_wo_entrp">   -271.99003574 </i>
   <i name="e_0_energy">   -271.99003574 </i>
  </energy>
  <time name="totalsc">    6.27    6.42</time>
 </calculation>
 <calculation>
  <scstep>
   <time name="dav">    1.76    1.77</time>
   <time name="total">    2.32    2.35</time>
   <energy>
    <i name="alphaZ">    298.39578352 </i>
    <i name="ewald">  -8776.46616953 </i>
    <i name="hartreedc">  -2231.49976332 </i>
    <i name="XCdc">    537.69480983 </i>
    <i name="pawpsdc">   9831.40250583 </i>
    <i name="pawaedc">  -9975.49469202 </i>
    <i name="eentropy">     -0.00000000 </i>
    <i name="bandstr">  -2645.71721602 </i>
    <i name="atom">  12703.13999606 </i>
    <i name="e_fr_energy">   -258.54474565 </i>
    <i name="e_wo_entrp">   -258.54474565 </i>
    <i name="e_0_energy">   -258.54474565 </i>
   </energy>
  </scstep>
  <scstep>
   <time name="diag">    0.27    0.28</time>
   <time name="diis">    0.70    0.71</time>
   <time name="orth">    0.05    0.05</time>
   <time name="total">    1.48    1.49</time>
   <energy>
    <i name="alphaZ">    298.39578352 </i>
    <i name="ewald">  -8776.46616953 </i>
    <i name="hartreedc">  -2231.49771542 </i>
    <i name="XCdc">    537.69468007 </i>
    <i name="pawpsdc">   9831.36653687 </i>
    <i name="pawaedc">  -9975.45858908 </i>
    <i name="eentropy">     -0.00000000 </i>
    <i name="bandstr">  -2645.71926844 </i>
    <i name="atom">  12703.13999606 </i>
    <i name="e_fr_energy">   -258.54474594 </i>
    <i name="e_wo_entrp">   -258.54474594 </i>
    <i name="e_0_energy">   -258.54474594 </i>
   </energy>
  </scstep>
  <structure>
   <crystal>
    <varray name="basis" >
     <v>       9.68953769       0.00000000       0.00000000 </v>
     <v>       0.00000000       9.68953769       0.00000000 </v>
     <v>       0.00000000       0.00000000       9.68953769 </v>
    </varray>
    <i name="volume">    909.72298762 </i>
    <varray name="rec_basis" >
     <v>       0.10320410       0.00000000       0.00000000 </v>
     <v>       0.00000000       0.10320410       0.00000000 </v>
     <v>       0.00000000       0.00000000       0.10320410 </v>
    </varray>
   </crystal>
   <varray name="positions" >
    <v>       0.98016091       0.25900813       0.24112627 </v>
    <v>       0.96955509       0.72838192       0.77175249 </v>
    <v>       0.03884876       0.17899124       0.82785379 </v>
    <v>       0.03884876       0.67228062       0.32114317 </v>
    <v>       0.33288495       0.31786808       0.95427978 </v>
    <v>       0.17800899       0.80587357       0.02011935 </v>
    <v>       0.69852365       0.28045951       0.02687608 </v>
    <v>       0.68398406       0.69671550       0.99345605 </v>
    <v>       0.19155225       0.99090370       0.20132127 </v>
    <v>       0.27754543       0.01963428       0.70816192 </v>
    <v>       0.80104580       0.96231075       0.82941698 </v>
    <v>       0.82414395       0.01724827       0.19372554 </v>
    <v>       0.27754543       0.79197248       0.48050012 </v>
    <v>       0.19155225       0.29881314       0.50923070 </v>
    <v>       0.80104580       0.67071742       0.53782366 </v>
    <v>       0.82414395       0.30640887       0.48288613 </v>
    <v>       0.17800899       0.48001506       0.69426084 </v>
    <v>       0.33288495       0.54585463       0.18226633 </v>
    <v>       0.69852365       0.47325833       0.21967490 </v>
    <v>       0.68398406       0.50667836       0.80341891 </v>
    <v>       0.47677417       0.19800712       0.66971538 </v>
    <v>       0.47677417       0.83041902       0.30212728 </v>
    <v>       0.52766259       0.17532267       0.32481174 </v>
    <v>       0.53026309       0.81529365       0.68484075 </v>
    <v>       0.49502700       0.50316123       0.49762838 </v>
    <v>       0.49502700       0.00250603       0.99697317 </v>
    <v>       0.00587254       0.49335205       0.00678235 </v>
    <v>       0.98469129       0.98956722       0.51056719 </v>
    <v>       0.10744439       0.86673775       0.63339666 </v>
    <v>       0.10781209       0.11270790       0.38742651 </v>
    <v>       0.87118904       0.86262342       0.38699812 </v>
    <v>       0.87118904       0.11313629       0.63751098 </v>
    <v>       0.88533789       0.61685250       0.12931212 </v>
    <v>       0.88533789       0.37082228       0.88328191 </v>
    <v>       0.13684799       0.61179420       0.88834021 </v>
    <v>       0.14316770       0.37943751       0.12069689 </v>
    <v>       0.61326762       0.11886743       0.86491207 </v>
    <v>       0.62566471       0.89093646       0.12223139 </v>
    <v>       0.37967516       0.13037142       0.11960857 </v>
    <v>       0.37633101       0.87160859       0.88161364 </v>
    <v>       0.61326762       0.63522233       0.38126698 </v>
    <v>       0.62566471       0.37790302       0.60919795 </v>
    <v>       0.37633101       0.61852077       0.62852581 </v>
    <v>       0.37967516       0.38052584       0.36976298 </v>
    <v>       0.74052089       0.73684721       0.76328720 </v>
    <v>       0.75015769       0.24208662       0.25804779 </v>
    <v>       0.25109966       0.76265086       0.24683678 </v>
    <v>       0.25109966       0.25329763       0.73748355 </v>
    <v>       0.00221803       0.99557423       0.00733733 </v>
    <v>       0.00221803       0.49279707       0.50456018 </v>
    <v>       0.46118656       0.98852291       0.51161150 </v>
    <v>       0.53684360       0.48496286       0.01517154 </v>
   </varray>
  </structure>
  <varray name="forces" >
   <v>      -0.00011417       0.00007645      -0.00007645 </v>
   <v>       0.00009269      -0.00019627       0.00019627 </v>
   <v>       0.00000136       0.00005438      -0.00002658 </v>
   <v>       0.00000136       0.00002658      -0.00005438 </v>
   <v>       0.00018793       0.00040922      -0.00027553 </v>
   <v>      -0.00031907       0.00013898      -0.00002568 </v>
   <v>      -0.00002880       0.00001043      -0.00016814 </v>
   <v>      -0.00040723       0.00009008      -0.00006851 </v>
   <v>       0.00000873       0.00008082      -0.00002879 </v>
   <v>       0.00003200      -0.00007737       0.00030350 </v>
   <v>       0.00013655      -0.00011671       0.00073555 </v>
   <v>       0.00021315       0.00003983       0.00035239 </v>
   <v>       0.00003200      -0.00030350       0.00007737 </v>
   <v>       0.00000873       0.00002879      -0.00008082 </v>
   <v>       0.00013655      -0.00073555       0.00011671 </v>
   <v>       0.00021315      -0.00035239      -0.00003983 </v>
   <v>      -0.00031907       0.00002568      -0.00013898 </v>
   <v>       0.00018793       0.00027553      -0.00040922 </v>
   <v>      -0.00002880       0.00016814      -0.00001043 </v>
   <v>      -0.00040723       0.00006851      -0.00009008 </v>
   <v>       0.00000335       0.00001972      -0.00039056 </v>
   <v>       0.00000335       0.00039056      -0.00001972 </v>
   <v>       0.00006295      -0.00020360       0.00020360 </v>
   <v>       0.00014471       0.00014917      -0.00014917 </v>
   <v>       0.00022941       0.00034999       0.00025497 </v>
   <v>       0.00022941      -0.00025497      -0.00034999 </v>
   <v>      -0.00011723      -0.00010702       0.00010702 </v>
   <v>       0.00030543      -0.00019798       0.00019798 </v>
   <v>      -0.00016614       0.00038539      -0.00038539 </v>
   <v>      -0.00063765      -0.00048191       0.00048191 </v>
   <v>       0.00024436       0.00015015       0.00031346 </v>
   <v>       0.00024436      -0.00031346      -0.00015015 </v>
   <v>       0.00030372      -0.00030339      -0.00053073 </v>
   <v>       0.00030372       0.00053073       0.00030339 </v>
   <v>      -0.00021281      -0.00028586       0.00028586 </v>
   <v>      -0.00058072       0.00017798      -0.00017798 </v>
   <v>      -0.00043259      -0.00025389       0.00026933 </v>
   <v>      -0.00041887       0.00060306      -0.00050456 </v>
   <v>      -0.00003400       0.00011631      -0.00007273 </v>
   <v>       0.00057158       0.00055922       0.00054351 </v>
   <v>      -0.00043259      -0.00026933       0.00025389 </v>
   <v>      -0.00041887       0.00050456      -0.00060306 </v>
   <v>       0.00057158      -0.00054351      -0.00055922 </v>
   <v>      -0.00003400       0.00007273      -0.00011631 </v>
   <v>       0.00015144      -0.00010595       0.00010595 </v>
   <v>       0.00007681       0.00019457      -0.00019457 </v>
   <v>      -0.00003437       0.00020978       0.00012148 </v>
   <v>      -0.00003437      -0.00012148      -0.00020978 </v>
   <v>       0.00010296      -0.00003636       0.00004825 </v>
   <v>       0.00010296      -0.00004825       0.00003636 </v>
   <v>      -0.00070066      -0.00046077       0.00046077 </v>
   <v>       0.00097503      -0.00013781       0.00013781 </v>
  </varray>
  <varray name="stress" >
   <v>      -1.85014929       2.31985069      -2.31985069 </v>
   <v>       2.31985020       0.91750668       4.73390913 </v>
   <v>      -2.31985020       4.73390913       0.91750668 </v>
  </varray>
  <energy>
   <i name="e_fr_energy">   -271.99003656 </i>
   <i name="e_wo_entrp">   -271.99003656 </i>
   <i name="e_0_energy">   -271.99003656 </i>
  </energy>
  <time name="totalsc">    6.34    6.42</time>
  <eigenvalues>
   <array>
    <dimension dim="1">band</dimension>
    <dimension dim="2">kpoint</dimension>
    <dimension dim="3">spin</dimension>
    <field>eigene</field>
    <field>occ</field>
    <set>
     <set comment="spin 1">
      <set comment="kpoint 1">
       <r>  -42.6329    1.0000 </r>
       <r>  -42.6035    1.0000 </r>
       <r>  -42.6009    1.0000 </r>
       <r>  -42.5661    1.0000 </r>
       <r>  -42.5657    1.0000 </r>
       <r>  -42.4596    1.0000 </r>
       <r>  -42.4497    1.0000 </r>
       <r>  -42.4494    1.0000 </r>
       <r>  -42.4492    1.0000 </r>
       <r>  -42.4488    1.0000 </r>
       <r>  -42.4485    1.0000 </r>
       <r>  -42.4481    1.0000 </r>
       <r>  -42.4481    1.0000 </r>
       <r>  -42.4471    1.0000 </r>
       <r>  -42.4470    1.0000 </r>
       <r>  -42.4420    1.0000 </r>
       <r>  -42.4110    1.0000 </r>
       <r>  -42.4109    1.0000 </r>
       <r>  -42.4037    1.0000 </r>
       <r>  -42.3885    1.0000 </r>
       <r>  -42.3791    1.0000 </r>
       <r>  -42.3655    1.0000 </r>
       <r>  -42.3626    1.0000 </r>
       <r>  -42.3219    1.0000 </r>
       <r>  -13.1102    1.0000 </r>
       <r>  -13.0775    1.0000 </r>
       <r>  -13.0650    1.0000 </r>
       <r>  -13.0592    1.0000 </r>
       <r>  -12.6933    1.0000 </r>
       <r>  -12.6033    1.0000 </r>
       <r>  -12.4637    1.0000 </r>
       <r>  -12.4607    1.0000 </r>
       <r>  -10.3606    1.0000 </r>
       <r>  -10.3395    1.0000 </r>
       <r>  -10.2984    1.0000 </r>
       <r>  -10.1801    1.0000 </r>
       <r>  -10.1468    1.0000 </r>
       <r>  -10.0978    1.0000 </r>
       <r>  -10.0759    1.0000 </r>
       <r>  -10.0579    1.0000 </r>
       <r>  -10.0277    1.0000 </r>
       <r>  -10.0057    1.0000 </r>
       <r>   -9.9905    1.0000 </r>
       <r>   -9.9846    1.0000 </r>
       <r>   -8.4932    1.0000 </r>
       <r>   -8.4245    1.0000 </r>
       <r>   -8.3685    1.0000 </r>
       <r>   -8.3661    1.0000 </r>
       <r>   -6.1892    1.0000 </r>
       <r>   -5.8067    1.0000 </r>
       <r>   -5.7381    1.0000 </r>
       <r>   -5.7102    1.0000 </r>
       <r>   -3.2921    1.0000 </r>
       <r>   -3.2809    1.0000 </r>
       <r>   -3.2491    1.0000 </r>
       <r>   -2.9066    1.0000 </r>
       <r>   -2.7993    1.0000 </r>
       <r>   -2.7286    1.0000 </r>
       <r>   -2.6140    1.0000 </r>
       <r>   -2.5452    1.0000 </r>
       <r>   -2.5011    1.0000 </r>
       <r>   -2.4857    1.0000 </r>
       <r>   -2.4428    1.0000 </r>
       <r>   -2.3821    1.0000 </r>
       <r>   -1.6354    1.0000 </r>
       <r>   -1.5286    1.0000 </r>
       <r>   -1.4807    1.0000 </r>
       <r>   -1.4149    1.0000 </r>
       <r>   -1.3645    1.0000 </r>
       <r>   -1.3277    1.0000 </r>
       <r>   -1.2646    1.0000 </r>
       <r>   -1.1966    1.0000 </r>
       <r>   -1.1371    1.0000 </r>
       <r>   -1.0566    1.0000 </r>
       <r>   -1.0058    1.0000 </r>
       <r>   -0.9570    1.0000 </r>
       <r>   -0.6224    1.0000 </r>
       <r>   -0.5805    1.0000 </r>
       <r>   -0.5564    1.0000 </r>
       <r>   -0.3838    1.0000 </r>
       <r>   -0.3511    1.0000 </r>
       <r>   -0.2121    1.0000 </r>
       <r>   -0.1584    1.0000 </r>
       <r>   -0.1500    1.0000 </r>
       <r>   -0.0971    1.0000 </r>
       <r>   -0.0850    1.0000 </r>
       <r>   -0.0484    1.0000 </r>
       <r>   -0.0068    1.0000 </r>
       <r>    0.0079    1.0000 </r>
       <r>    0.0737    1.0000 </r>
       <r>    0.0947    1.0000 </r>
       <r>    0.1013    1.0000 </r>
       <r>    0.1780    1.0000 </r>
       <r>    0.2425    1.0000 </r>
       <r>    0.3162    1.0000 </r>
       <r>    0.3805    1.0000 </r>
       <r>    0.7016    1.0000 </r>
       <r>    0.7557    1.0000 </r>
       <r>    0.7931    1.0000 </r>
       <r>    0.8270    1.0000 </r>
       <r>    0.8556    1.0000 </r>
       <r>    0.9273    1.0000 </r>
       <r>    0.9539    1.0000 </r>
       <r>    1.0016    1.0000 </r>
       <r>    1.0377    1.0000 </r>
       <r>    1.0770    1.0000 </r>
       <r>    1.1099    1.0000 </r>
       <r>    1.1490    1.0000 </r>
       <r>    1.2096    1.0000 </r>
       <r>    1.2423    1.0000 </r>
       <r>    1.2481    1.0000 </r>
       <r>    1.2999    1.0000 </r>
       <r>    1.3240    1.0000 </r>
       <r>    1.3321    1.0000 </r>
       <r>    1.3847    1.0000 </r>
       <r>    1.4495    1.0000 </r>
       <r>    1.4634    1.0000 </r>
       <r>    1.4866    1.0000 </r>
       <r>    1.5135    1.0000 </r>
       <r>    1.5793    1.0000 </r>
       <r>    4.3509    0.0000 </r>
       <r>    5.1628    0.0000 </r>
       <r>    5.2109    0.0000 </r>
       <r>    5.2634    0.0000 </r>
       <r>    5.8458    0.0000 </r>
       <r>    5.9133    0.0000 </r>
       <r>    5.9854    0.0000 </r>
       <r>    6.0046    0.0000 </r>
       <r>    6.0973    0.0000 </r>
       <r>    6.1332    0.0000 </r>
       <r>    6.4448    0.0000 </r>
       <r>    6.5256    0.0000 </r>
       <r>    6.5603    0.0000 </r>
       <r>    6.6789    0.0000 </r>
       <r>    6.7616    0.0000 </r>
       <r>    6.7866    0.0000 </r>
       <r>    7.0478    0.0000 </r>
       <r>    7.2327    0.0000 </r>
       <r>    7.4164    0.0000 </r>
       <r>    7.4693    0.0000 </r>
       <r>    7.6044    0.0000 </r>
       <r>    7.6477    0.0000 </r>
       <r>    7.7168    0.0000 </r>
       <r>    7.8288    0.0000 </r>
       <r>    7.9667    0.0000 </r>
       <r>    7.9893    0.0000 </r>
       <r>    8.0440    0.0000 </r>
       <r>    8.0935    0.0000 </r>
       <r>    8.1625    0.0000 </r>
       <r>    8.2008    0.0000 </r>
       <r>    8.3400    0.0000 </r>
       <r>    8.3501    0.0000 </r>
       <r>    8.4373    0.0000 </r>
       <r>    8.5851    0.0000 </r>
       <r>    8.6180    0.0000 </r>
       <r>    8.6517    0.0000 </r>
       <r>    8.7210    0.0000 </r>
       <r>    8.8207    0.0000 </r>
       <r>    8.8784    0.0000 </r>
       <r>    8.9153    0.0000 </r>
       <r>    8.9924    0.0000 </r>
       <r>    9.0222    0.0000 </r>
       <r>    9.1317    0.0000 </r>
       <r>    9.1776    0.0000 </r>
       <r>    9.2065    0.0000 </r>
       <r>    9.2490    0.0000 </r>
       <r>    9.2835    0.0000 </r>
       <r>    9.3665    0.0000 </r>
       <r>    9.3936    0.0000 </r>
       <r>    9.4435    0.0000 </r>
       <r>    9.5058    0.0000 </r>
       <r>    9.5869    0.0000 </r>
       <r>    9.6363    0.0000 </r>
       <r>    9.7192    0.0000 </r>
       <r>    9.8021    0.0000 </r>
       <r>    9.8704    0.0000 </r>
      </set>
      <set comment="kpoint 2">
       <r>  -42.6329    1.0000 </r>
       <r>  -42.6035    1.0000 </r>
       <r>  -42.6009    1.0000 </r>
       <r>  -42.5661    1.0000 </r>
[...]
       <r>     7.8775     9.4725   143.9328 </r>
       <r>     8.0700    15.1710   146.8601 </r>
       <r>     8.2625    14.8188   149.7150 </r>
       <r>     8.4551    15.4936   152.6987 </r>
       <r>     8.6476    12.7213   155.1482 </r>
       <r>     8.8401    15.0268   158.0420 </r>
       <r>     9.0326    21.2911   162.1420 </r>
       <r>     9.2251    16.9851   165.4121 </r>
       <r>     9.4177    17.2436   168.7392 </r>
       <r>     9.6102    16.0931   171.8435 </r>
       <r>     9.8027    15.0070   174.7327 </r>
       <r>     9.9952     6.5826   176.0000 </r>
       <r>    10.1877     0.0000   176.0000 </r>
       <r>    10.3803     0.0000   176.0000 </r>
       <r>    10.5728     0.0000   176.0000 </r>
       <r>    10.7653     0.0000   176.0000 </r>
       <r>    10.9578     0.0000   176.0000 </r>
       <r>    11.1503     0.0000   176.0000 </r>
       <r>    11.3429     0.0000   176.0000 </r>
       <r>    11.5354     0.0000   176.0000 </r>
       <r>    11.7279     0.0000   176.0000 </r>
       <r>    11.9204     0.0000   176.0000 </r>
       <r>    12.1129     0.0000   176.0000 </r>
       <r>    12.3055     0.0000   176.0000 </r>
       <r>    12.4980     0.0000   176.0000 </r>
      </set>
      <set comment="spin 2">
       <r>   -45.2581     0.0000     0.0000 </r>
       <r>   -45.0656     0.0000     0.0000 </r>
       <r>   -44.8731     0.0000     0.0000 </r>
       <r>   -44.6806     0.0000     0.0000 </r>
       <r>   -44.4881     0.0000     0.0000 </r>
       <r>   -44.2955     0.0000     0.0000 </r>
       <r>   -44.1030     0.0000     0.0000 </r>
       <r>   -43.9105     0.0000     0.0000 </r>
       <r>   -43.7180     0.0000     0.0000 </r>
       <r>   -43.5255     0.0000     0.0000 </r>
       <r>   -43.3329     0.0000     0.0000 </r>
       <r>   -43.1404     0.0000     0.0000 </r>
       <r>   -42.9479     0.0000     0.0000 </r>
       <r>   -42.7554     0.0000     0.0000 </r>
       <r>   -42.5629    21.0365     4.0500 </r>
       <r>   -42.3703    88.7120    21.1293 </r>
       <r>   -42.1778    14.9036    24.0000 </r>
       <r>   -41.9853     0.0000    24.0000 </r>
       <r>   -41.7928     0.0000    24.0000 </r>
       <r>   -41.6003     0.0000    24.0000 </r>
       <r>   -41.4077     0.0000    24.0000 </r>
       <r>   -41.2152     0.0000    24.0000 </r>
       <r>   -41.0227     0.0000    24.0000 </r>
       <r>   -40.8302     0.0000    24.0000 </r>
       <r>   -40.6377     0.0000    24.0000 </r>
       <r>   -40.4451     0.0000    24.0000 </r>
       <r>   -40.2526     0.0000    24.0000 </r>
       <r>   -40.0601     0.0000    24.0000 </r>
       <r>   -39.8676     0.0000    24.0000 </r>
       <r>   -39.6751     0.0000    24.0000 </r>
       <r>   -39.4825     0.0000    24.0000 </r>
       <r>   -39.2900     0.0000    24.0000 </r>
       <r>   -39.0975     0.0000    24.0000 </r>
       <r>   -38.9050     0.0000    24.0000 </r>
       <r>   -38.7124     0.0000    24.0000 </r>
       <r>   -38.5199     0.0000    24.0000 </r>
       <r>   -38.3274     0.0000    24.0000 </r>
       <r>   -38.1349     0.0000    24.0000 </r>
       <r>   -37.9424     0.0000    24.0000 </r>
       <r>   -37.7498     0.0000    24.0000 </r>
       <r>   -37.5573     0.0000    24.0000 </r>
       <r>   -37.3648     0.0000    24.0000 </r>
       <r>   -37.1723     0.0000    24.0000 </r>
       <r>   -36.9798     0.0000    24.0000 </r>
       <r>   -36.7872     0.0000    24.0000 </r>
       <r>   -36.5947     0.0000    24.0000 </r>
       <r>   -36.4022     0.0000    24.0000 </r>
       <r>   -36.2097     0.0000    24.0000 </r>
       <r>   -36.0172     0.0000    24.0000 </r>
       <r>   -35.8246     0.0000    24.0000 </r>
       <r>   -35.6321     0.0000    24.0000 </r>
       <r>   -35.4396     0.0000    24.0000 </r>
       <r>   -35.2471     0.0000    24.0000 </r>
       <r>   -35.0546     0.0000    24.0000 </r>
       <r>   -34.8620     0.0000    24.0000 </r>
       <r>   -34.6695     0.0000    24.0000 </r>
       <r>   -34.4770     0.0000    24.0000 </r>
       <r>   -34.2845     0.0000    24.0000 </r>
       <r>   -34.0920     0.0000    24.0000 </r>
       <r>   -33.8994     0.0000    24.0000 </r>
       <r>   -33.7069     0.0000    24.0000 </r>
       <r>   -33.5144     0.0000    24.0000 </r>
       <r>   -33.3219     0.0000    24.0000 </r>
       <r>   -33.1294     0.0000    24.0000 </r>
       <r>   -32.9368     0.0000    24.0000 </r>
       <r>   -32.7443     0.0000    24.0000 </r>
       <r>   -32.5518     0.0000    24.0000 </r>
       <r>   -32.3593     0.0000    24.0000 </r>
       <r>   -32.1668     0.0000    24.0000 </r>
       <r>   -31.9742     0.0000    24.0000 </r>
       <r>   -31.7817     0.0000    24.0000 </r>
       <r>   -31.5892     0.0000    24.0000 </r>
       <r>   -31.3967     0.0000    24.0000 </r>
       <r>   -31.2042     0.0000    24.0000 </r>
       <r>   -31.0116     0.0000    24.0000 </r>
       <r>   -30.8191     0.0000    24.0000 </r>
       <r>   -30.6266     0.0000    24.0000 </r>
       <r>   -30.4341     0.0000    24.0000 </r>
       <r>   -30.2415     0.0000    24.0000 </r>
       <r>   -30.0490     0.0000    24.0000 </r>
       <r>   -29.8565     0.0000    24.0000 </r>
       <r>   -29.6640     0.0000    24.0000 </r>
       <r>   -29.4715     0.0000    24.0000 </r>
       <r>   -29.2789     0.0000    24.0000 </r>
       <r>   -29.0864     0.0000    24.0000 </r>
       <r>   -28.8939     0.0000    24.0000 </r>
       <r>   -28.7014     0.0000    24.0000 </r>
       <r>   -28.5089     0.0000    24.0000 </r>
       <r>   -28.3163     0.0000    24.0000 </r>
       <r>   -28.1238     0.0000    24.0000 </r>
       <r>   -27.9313     0.0000    24.0000 </r>
       <r>   -27.7388     0.0000    24.0000 </r>
       <r>   -27.5463     0.0000    24.0000 </r>
       <r>   -27.3537     0.0000    24.0000 </r>
       <r>   -27.1612     0.0000    24.0000 </r>
       <r>   -26.9687     0.0000    24.0000 </r>
       <r>   -26.7762     0.0000    24.0000 </r>
       <r>   -26.5837     0.0000    24.0000 </r>
       <r>   -26.3911     0.0000    24.0000 </r>
       <r>   -26.1986     0.0000    24.0000 </r>
       <r>   -26.0061     0.0000    24.0000 </r>
       <r>   -25.8136     0.0000    24.0000 </r>
       <r>   -25.6211     0.0000    24.0000 </r>
       <r>   -25.4285     0.0000    24.0000 </r>
       <r>   -25.2360     0.0000    24.0000 </r>
       <r>   -25.0435     0.0000    24.0000 </r>
       <r>   -24.8510     0.0000    24.0000 </r>
       <r>   -24.6585     0.0000    24.0000 </r>
       <r>   -24.4659     0.0000    24.0000 </r>
       <r>   -24.2734     0.0000    24.0000 </r>
       <r>   -24.0809     0.0000    24.0000 </r>
       <r>   -23.8884     0.0000    24.0000 </r>
       <r>   -23.6959     0.0000    24.0000 </r>
       <r>   -23.5033     0.0000    24.0000 </r>
       <r>   -23.3108     0.0000    24.0000 </r>
       <r>   -23.1183     0.0000    24.0000 </r>
       <r>   -22.9258     0.0000    24.0000 </r>
       <r>   -22.7333     0.0000    24.0000 </r>
       <r>   -22.5407     0.0000    24.0000 </r>
       <r>   -22.3482     0.0000    24.0000 </r>
       <r>   -22.1557     0.0000    24.0000 </r>
       <r>   -21.9632     0.0000    24.0000 </r>
       <r>   -21.7706     0.0000    24.0000 </r>
       <r>   -21.5781     0.0000    24.0000 </r>
       <r>   -21.3856     0.0000    24.0000 </r>
       <r>   -21.1931     0.0000    24.0000 </r>
       <r>   -21.0006     0.0000    24.0000 </r>
       <r>   -20.8080     0.0000    24.0000 </r>
       <r>   -20.6155     0.0000    24.0000 </r>
       <r>   -20.4230     0.0000    24.0000 </r>
       <r>   -20.2305     0.0000    24.0000 </r>
       <r>   -20.0380     0.0000    24.0000 </r>
       <r>   -19.8454     0.0000    24.0000 </r>
       <r>   -19.6529     0.0000    24.0000 </r>
       <r>   -19.4604     0.0000    24.0000 </r>
       <r>   -19.2679     0.0000    24.0000 </r>
       <r>   -19.0754     0.0000    24.0000 </r>
       <r>   -18.8828     0.0000    24.0000 </r>
       <r>   -18.6903     0.0000    24.0000 </r>
       <r>   -18.4978     0.0000    24.0000 </r>
       <r>   -18.3053     0.0000    24.0000 </r>
       <r>   -18.1128     0.0000    24.0000 </r>
       <r>   -17.9202     0.0000    24.0000 </r>
       <r>   -17.7277     0.0000    24.0000 </r>
       <r>   -17.5352     0.0000    24.0000 </r>
       <r>   -17.3427     0.0000    24.0000 </r>
       <r>   -17.1502     0.0000    24.0000 </r>
       <r>   -16.9576     0.0000    24.0000 </r>
       <r>   -16.7651     0.0000    24.0000 </r>
       <r>   -16.5726     0.0000    24.0000 </r>
       <r>   -16.3801     0.0000    24.0000 </r>
       <r>   -16.1876     0.0000    24.0000 </r>
       <r>   -15.9950     0.0000    24.0000 </r>
       <r>   -15.8025     0.0000    24.0000 </r>
       <r>   -15.6100     0.0000    24.0000 </r>
       <r>   -15.4175     0.0000    24.0000 </r>
       <r>   -15.2250     0.0000    24.0000 </r>
       <r>   -15.0324     0.0000    24.0000 </r>
       <r>   -14.8399     0.0000    24.0000 </r>
       <r>   -14.6474     0.0000    24.0000 </r>
       <r>   -14.4549     0.0000    24.0000 </r>
       <r>   -14.2624     0.0000    24.0000 </r>
       <r>   -14.0698     0.0000    24.0000 </r>
       <r>   -13.8773     0.0000    24.0000 </r>
       <r>   -13.6848     0.0000    24.0000 </r>
       <r>   -13.4923     0.0000    24.0000 </r>
       <r>   -13.2998     0.0000    24.0000 </r>
       <r>   -13.1072     3.5438    24.6823 </r>
       <r>   -12.9147    17.2332    28.0000 </r>
       <r>   -12.7222     0.4501    28.0867 </r>
       <r>   -12.5297     9.9448    30.0012 </r>
       <r>   -12.3371    10.3807    32.0000 </r>
       <r>   -12.1446     0.0000    32.0000 </r>
       <r>   -11.9521     0.0000    32.0000 </r>
       <r>   -11.7596     0.0000    32.0000 </r>
       <r>   -11.5671     0.0000    32.0000 </r>
       <r>   -11.3745     0.0000    32.0000 </r>
       <r>   -11.1820     0.0000    32.0000 </r>
       <r>   -10.9895     0.0000    32.0000 </r>
       <r>   -10.7970     0.0000    32.0000 </r>
       <r>   -10.6045     0.0000    32.0000 </r>
       <r>   -10.4119     0.1003    32.0193 </r>
       <r>   -10.2194    16.7367    35.2415 </r>
       <r>   -10.0269    27.6045    40.5560 </r>
       <r>    -9.8344    17.8314    44.0000 </r>
       <r>    -9.6419     0.0000    44.0000 </r>
       <r>    -9.4493     0.0000    44.0000 </r>
       <r>    -9.2568     0.0000    44.0000 </r>
       <r>    -9.0643     0.0000    44.0000 </r>
       <r>    -8.8718     0.0000    44.0000 </r>
       <r>    -8.6793     0.0000    44.0000 </r>
       <r>    -8.4867     3.2354    44.6229 </r>
       <r>    -8.2942    17.5386    47.9994 </r>
       <r>    -8.1017     0.0000    48.0000 </r>
       <r>    -7.9092     0.0000    48.0000 </r>
       <r>    -7.7167     0.0000    48.0000 </r>
       <r>    -7.5241     0.0000    48.0000 </r>
       <r>    -7.3316     0.0000    48.0000 </r>
       <r>    -7.1391     0.0000    48.0000 </r>
       <r>    -6.9466     0.0000    48.0000 </r>
       <r>    -6.7541     0.0000    48.0000 </r>
       <r>    -6.5615     0.0000    48.0000 </r>
       <r>    -6.3690     0.0000    48.0000 </r>
       <r>    -6.1765     4.3416    48.8358 </r>
       <r>    -5.9840     0.8527    49.0000 </r>
       <r>    -5.7915     3.1078    49.5983 </r>
       <r>    -5.5989    12.4750    52.0000 </r>
       <r>    -5.4064     0.0000    52.0000 </r>
       <r>    -5.2139     0.0000    52.0000 </r>
       <r>    -5.0214     0.0000    52.0000 </r>
       <r>    -4.8289     0.0000    52.0000 </r>
       <r>    -4.6363     0.0000    52.0000 </r>
       <r>    -4.4438     0.0000    52.0000 </r>
       <r>    -4.2513     0.0000    52.0000 </r>
       <r>    -4.0588     0.0000    52.0000 </r>
       <r>    -3.8662     0.0000    52.0000 </r>
       <r>    -3.6737     0.0000    52.0000 </r>
       <r>    -3.4812     0.0000    52.0000 </r>
       <r>    -3.2887     5.2337    53.0076 </r>
       <r>    -3.0962    10.3491    55.0000 </r>
       <r>    -2.9036     3.7394    55.7199 </r>
       <r>    -2.7111    10.5004    57.7415 </r>
       <r>    -2.5186    12.6795    60.1829 </r>
       <r>    -2.3261    19.8073    63.9979 </r>
       <r>    -2.1336     0.0000    64.0000 </r>
       <r>    -1.9410     0.0000    64.0000 </r>
       <r>    -1.7485     0.0000    64.0000 </r>
       <r>    -1.5560     5.6887    65.0952 </r>
       <r>    -1.3635    17.7637    68.5151 </r>
       <r>    -1.1710    17.7687    71.9416 </r>
       <r>    -0.9784    16.0662    75.0347 </r>
       <r>    -0.7859     5.0132    76.0000 </r>
       <r>    -0.5934     6.3107    77.2149 </r>
       <r>    -0.4009    11.3877    79.4073 </r>
       <r>    -0.2084    10.9378    81.5131 </r>
       <r>    -0.0158    31.5793    87.5927 </r>
       <r>     0.1767    23.7062    92.1607 </r>
       <r>     0.3692    15.6744    95.1789 </r>
       <r>     0.5617     4.2484    96.0000 </r>
       <r>     0.7542     8.9881    97.7304 </r>
       <r>     0.9468    24.1451   102.3827 </r>
       <r>     1.1393    22.9136   106.7944 </r>
       <r>     1.3318    32.6066   113.0727 </r>
       <r>     1.5243    28.2058   118.5046 </r>
       <r>     1.7168     7.5255   119.9558 </r>
       <r>     1.9094     0.2189   120.0000 </r>
       <r>     2.1019     0.0000   120.0000 </r>
       <r>     2.2944     0.0000   120.0000 </r>
       <r>     2.4869     0.0000   120.0000 </r>
       <r>     2.6794     0.0000   120.0000 </r>
       <r>     2.8720     0.0000   120.0000 </r>
       <r>     3.0645     0.0000   120.0000 </r>
       <r>     3.2570     0.0000   120.0000 </r>
       <r>     3.4495     0.0000   120.0000 </r>
       <r>     3.6420     0.0000   120.0000 </r>
       <r>     3.8346     0.0000   120.0000 </r>
       <r>     4.0271     0.0000   120.0000 </r>
       <r>     4.2196     0.0001   120.0000 </r>
       <r>     4.4121     5.1891   120.9990 </r>
       <r>     4.6047     0.0000   121.0000 </r>
       <r>     4.7972     0.0000   121.0000 </r>
       <r>     4.9897     0.0000   121.0000 </r>
       <r>     5.1822     4.7886   121.9219 </r>
       <r>     5.3747    10.7914   124.0000 </r>
       <r>     5.5673     0.0000   124.0000 </r>
       <r>     5.7598     0.0673   124.0130 </r>
       <r>     5.9523    11.0929   126.1486 </r>
       <r>     6.1448    16.6380   129.3517 </r>
       <r>     6.3373     3.5437   130.0428 </r>
       <r>     6.5299    11.8397   132.3222 </r>
       <r>     6.7224     6.8141   133.6342 </r>
       <r>     6.9149    12.2877   135.9999 </r>
       <r>     7.1074     5.1647   136.9943 </r>
       <r>     7.2999     2.8359   137.5415 </r>
       <r>     7.4925    10.7178   139.6053 </r>
       <r>     7.6850    13.0044   142.1091 </r>
       <r>     7.8775     9.4725   143.9328 </r>
       <r>     8.0700    15.1710   146.8601 </r>
       <r>     8.2625    14.8188   149.7150 </r>
       <r>     8.4551    15.4936   152.6988 </r>
       <r>     8.6476    12.7215   155.1483 </r>
       <r>     8.8401    15.0268   158.0421 </r>
       <r>     9.0326    21.2910   162.1421 </r>
       <r>     9.2251    17.0419   165.4231 </r>
       <r>     9.4177    17.0656   168.7097 </r>
       <r>     9.6102    17.1637   172.0202 </r>
       <r>     9.8027    15.5122   175.0067 </r>
       <r>     9.9952     5.1595   176.0000 </r>
       <r>    10.1877     0.0000   176.0000 </r>
       <r>    10.3803     0.0000   176.0000 </r>
       <r>    10.5728     0.0000   176.0000 </r>
       <r>    10.7653     0.0000   176.0000 </r>
       <r>    10.9578     0.0000   176.0000 </r>
       <r>    11.1503     0.0000   176.0000 </r>
       <r>    11.3429     0.0000   176.0000 </r>
       <r>    11.5354     0.0000   176.0000 </r>
       <r>    11.7279     0.0000   176.0000 </r>
       <r>    11.9204     0.0000   176.0000 </r>
       <r>    12.1129     0.0000   176.0000 </r>
       <r>    12.3055     0.0000   176.0000 </r>
       <r>    12.4980     0.0000   176.0000 </r>
      </set>
     </set>
    </array>
   </total>
  </dos>
 </calculation>
 <structure name="finalpos" >
  <crystal>
   <varray name="basis" >
    <v>       9.68953769       0.00000000       0.00000000 </v>
    <v>       0.00000000       9.68953769       0.00000000 </v>
    <v>       0.00000000       0.00000000       9.68953769 </v>
   </varray>
   <i name="volume">    909.72298762 </i>
   <varray name="rec_basis" >
    <v>       0.10320410       0.00000000       0.00000000 </v>
    <v>       0.00000000       0.10320410       0.00000000 </v>
    <v>       0.00000000       0.00000000       0.10320410 </v>
   </varray>
  </crystal>
  <varray name="positions" >
   <v>       0.98016091       0.25900813       0.24112627 </v>
   <v>       0.96955509       0.72838192       0.77175249 </v>
   <v>       0.03884876       0.17899124       0.82785379 </v>
   <v>       0.03884876       0.67228062       0.32114317 </v>
   <v>       0.33288495       0.31786808       0.95427978 </v>
   <v>       0.17800899       0.80587357       0.02011935 </v>
   <v>       0.69852365       0.28045951       0.02687608 </v>
   <v>       0.68398406       0.69671550       0.99345605 </v>
   <v>       0.19155225       0.99090370       0.20132127 </v>
   <v>       0.27754543       0.01963428       0.70816192 </v>
   <v>       0.80104580       0.96231075       0.82941698 </v>
   <v>       0.82414395       0.01724827       0.19372554 </v>
   <v>       0.27754543       0.79197248       0.48050012 </v>
   <v>       0.19155225       0.29881314       0.50923070 </v>
   <v>       0.80104580       0.67071742       0.53782366 </v>
   <v>       0.82414395       0.30640887       0.48288613 </v>
   <v>       0.17800899       0.48001506       0.69426084 </v>
   <v>       0.33288495       0.54585463       0.18226633 </v>
   <v>       0.69852365       0.47325833       0.21967490 </v>
   <v>       0.68398406       0.50667836       0.80341891 </v>
   <v>       0.47677417       0.19800712       0.66971538 </v>
   <v>       0.47677417       0.83041902       0.30212728 </v>
   <v>       0.52766259       0.17532267       0.32481174 </v>
   <v>       0.53026309       0.81529365       0.68484075 </v>
   <v>       0.49502700       0.50316123       0.49762838 </v>
   <v>       0.49502700       0.00250603       0.99697317 </v>
   <v>       0.00587254       0.49335205       0.00678235 </v>
   <v>       0.98469129       0.98956722       0.51056719 </v>
   <v>       0.10744439       0.86673775       0.63339666 </v>
   <v>       0.10781209       0.11270790       0.38742651 </v>
   <v>       0.87118904       0.86262342       0.38699812 </v>
   <v>       0.87118904       0.11313629       0.63751098 </v>
   <v>       0.88533789       0.61685250       0.12931212 </v>
   <v>       0.88533789       0.37082228       0.88328191 </v>
   <v>       0.13684799       0.61179420       0.88834021 </v>
   <v>       0.14316770       0.37943751       0.12069689 </v>
   <v>       0.61326762       0.11886743       0.86491207 </v>
   <v>       0.62566471       0.89093646       0.12223139 </v>
   <v>       0.37967516       0.13037142       0.11960857 </v>
   <v>       0.37633101       0.87160859       0.88161364 </v>
   <v>       0.61326762       0.63522233       0.38126698 </v>
   <v>       0.62566471       0.37790302       0.60919795 </v>
   <v>       0.37633101       0.61852077       0.62852581 </v>
   <v>       0.37967516       0.38052584       0.36976298 </v>
   <v>       0.74052089       0.73684721       0.76328720 </v>
   <v>       0.75015769       0.24208662       0.25804779 </v>
   <v>       0.25109966       0.76265086       0.24683678 </v>
   <v>       0.25109966       0.25329763       0.73748355 </v>
   <v>       0.00221803       0.99557423       0.00733733 </v>
   <v>       0.00221803       0.49279707       0.50456018 </v>
   <v>       0.46118656       0.98852291       0.51161150 </v>
   <v>       0.53684360       0.48496286       0.01517154 </v>
  </varray>
 </structure>
</modeling>
