unknown system                          
           1
     9.689538    0.000000    0.000000
     0.000000    9.689538    0.000000
     0.000000    0.000000    9.689538
   Li   P    S    Cl
    24     4    20     4
Direct configuration=     1
   0.98016231  0.25900698  0.24112743
   0.96955420  0.72838559  0.77174882
   0.03884911  0.17899005  0.82785365
   0.03884911  0.67228076  0.32114436
   0.33288098  0.31786147  0.95428333
   0.17801581  0.80587026  0.02011879
   0.69852413  0.28045874  0.02687936
   0.68399167  0.69671451  0.99345670
   0.19155183  0.99090127  0.20132158
   0.27754435  0.01963652  0.70815521
   0.80104270  0.96231346  0.82940278
   0.82413881  0.01724786  0.19371855
   0.27754435  0.79197919  0.48049789
   0.19155183  0.29881283  0.50923313
   0.80104270  0.67073163  0.53782095
   0.82413881  0.30641586  0.48288655
   0.17801581  0.48001562  0.69426415
   0.33288098  0.54585108  0.18227293
   0.69852413  0.47325504  0.21967566
   0.68399167  0.50667771  0.80341990
   0.47677463  0.19800765  0.66972275
   0.47677463  0.83041166  0.30212675
   0.52766240  0.17532639  0.32480801
   0.53025972  0.81529133  0.68484308
   0.49502892  0.50316289  0.49763378
   0.49502892  0.00250063  0.99697152
   0.00587189  0.49335305  0.00678136
   0.98469263  0.98956936  0.51056504
   0.10744118  0.86674211  0.63339230
   0.10781253  0.11270473  0.38742968
   0.87119237  0.86262875  0.38699580
   0.87119237  0.11313861  0.63750566
   0.88534000  0.61684656  0.12931134
   0.88534000  0.37082307  0.88328784
   0.13683990  0.61179627  0.88833814
   0.14316336  0.37944032  0.12069408
   0.61326724  0.11886508  0.86491834
   0.62565930  0.89093374  0.12222879
   0.37967695  0.13036618  0.11960694
   0.37633139  0.87161529  0.88161272
   0.61326724  0.63521607  0.38126932
   0.62565930  0.37790561  0.60920067
   0.37633139  0.61852168  0.62851911
   0.37967695  0.38052747  0.36976823
   0.74052096  0.73684752  0.76328688
   0.75016017  0.24208601  0.25804840
   0.25109933  0.76264951  0.24683767
   0.25109933  0.25329673  0.73748490
   0.00221871  0.99557140  0.00733420
   0.00221871  0.49280021  0.50456300
   0.46117995  0.98851797  0.51161644
   0.53685300  0.48495968  0.01517473
Direct configuration=     2
   0.98016192  0.25900730  0.24112711
   0.96955445  0.72838456  0.77174984
   0.03884901  0.17899038  0.82785369
   0.03884901  0.67228072  0.32114403
   0.33288209  0.31786332  0.95428234
   0.17801391  0.80587118  0.02011894
   0.69852399  0.28045896  0.02687845
   0.68398955  0.69671479  0.99345651
   0.19155195  0.99090195  0.20132149
   0.27754465  0.01963590  0.70815709
   0.80104357  0.96231270  0.82940674
   0.82414024  0.01724797  0.19372050
   0.27754465  0.79197732  0.48049851
   0.19155195  0.29881291  0.50923246
   0.80104357  0.67072766  0.53782171
   0.82414024  0.30641391  0.48288643
   0.17801391  0.48001546  0.69426322
   0.33288209  0.54585207  0.18227109
   0.69852399  0.47325596  0.21967545
   0.68398955  0.50667789  0.80341962
   0.47677450  0.19800750  0.66972069
   0.47677450  0.83041371  0.30212690
   0.52766246  0.17532535  0.32480905
   0.53026066  0.81529198  0.68484243
   0.49502838  0.50316243  0.49763227
   0.49502838  0.00250214  0.99697198
   0.00587207  0.49335277  0.00678163
   0.98469226  0.98956876  0.51056564
   0.10744208  0.86674089  0.63339352
   0.10781241  0.11270561  0.38742879
   0.87119144  0.86262726  0.38699645
   0.87119144  0.11313796  0.63750714
   0.88533941  0.61684822  0.12931156
   0.88533941  0.37082285  0.88328619
   0.13684216  0.61179569  0.88833872
   0.14316457  0.37943954  0.12069487
   0.61326734  0.11886574  0.86491659
   0.62566081  0.89093450  0.12222952
   0.37967645  0.13036764  0.11960739
   0.37633128  0.87161342  0.88161298
   0.61326734  0.63521782  0.38126867
   0.62566081  0.37790489  0.60919991
   0.37633128  0.61852143  0.62852098
   0.37967645  0.38052701  0.36976677
   0.74052094  0.73684743  0.76328697
   0.75015948  0.24208618  0.25804823
   0.25109942  0.76264988  0.24683742
   0.25109942  0.25329698  0.73748452
   0.00221852  0.99557219  0.00733507
   0.00221852  0.49279933  0.50456221
   0.46118179  0.98851935  0.51161506
   0.53685038  0.48496057  0.01517384
Direct configuration=     3
   0.98016158  0.25900758  0.24112683
   0.96955466  0.72838368  0.77175073
   0.03884893  0.17899067  0.82785372
   0.03884893  0.67228069  0.32114374
   0.33288304  0.31786490  0.95428148
   0.17801227  0.80587198  0.02011908
   0.69852388  0.28045914  0.02687766
   0.68398772  0.69671502  0.99345636
   0.19155205  0.99090253  0.20132142
   0.27754491  0.01963536  0.70815870
   0.80104431  0.96231205  0.82941016
   0.82414148  0.01724807  0.19372218
   0.27754491  0.79197571  0.48049905
   0.19155205  0.29881299  0.50923187
   0.80104431  0.67072425  0.53782236
   0.82414148  0.30641223  0.48288633
   0.17801227  0.48001533  0.69426243
   0.33288304  0.54585292  0.18226950
   0.69852388  0.47325675  0.21967527
   0.68398772  0.50667805  0.80341938
   0.47677439  0.19800738  0.66971892
   0.47677439  0.83041548  0.30212703
   0.52766250  0.17532446  0.32480995
   0.53026147  0.81529254  0.68484187
   0.49502792  0.50316203  0.49763097
   0.49502792  0.00250343  0.99697238
   0.00587223  0.49335253  0.00678187
   0.98469193  0.98956825  0.51056616
   0.10744285  0.86673984  0.63339456
   0.10781230  0.11270637  0.38742803
   0.87119064  0.86262598  0.38699700
   0.87119064  0.11313740  0.63750842
   0.88533891  0.61684965  0.12931174
   0.88533891  0.37082266  0.88328476
   0.13684410  0.61179519  0.88833921
   0.14316561  0.37943886  0.12069554
   0.61326744  0.11886630  0.86491509
   0.62566211  0.89093515  0.12223014
   0.37967602  0.13036890  0.11960778
   0.37633119  0.87161181  0.88161320
   0.61326744  0.63521932  0.38126810
   0.62566211  0.37790427  0.60919925
   0.37633119  0.61852121  0.62852259
   0.37967602  0.38052662  0.36976550
   0.74052092  0.73684736  0.76328705
   0.75015888  0.24208633  0.25804808
   0.25109950  0.76265021  0.24683721
   0.25109950  0.25329720  0.73748420
   0.00221836  0.99557287  0.00733583
   0.00221836  0.49279858  0.50456153
   0.46118338  0.98852054  0.51161387
   0.53684812  0.48496133  0.01517307
Direct configuration=     4
   0.98016091  0.25900813  0.24112627
   0.96955509  0.72838192  0.77175249
   0.03884876  0.17899124  0.82785379
   0.03884876  0.67228062  0.32114317
   0.33288495  0.31786808  0.95427978
   0.17800899  0.80587357  0.02011935
   0.69852365  0.28045951  0.02687608
   0.68398406  0.69671550  0.99345605
   0.19155225  0.99090370  0.20132127
   0.27754543  0.01963428  0.70816192
   0.80104580  0.96231075  0.82941698
   0.82414395  0.01724827  0.19372554
   0.27754543  0.79197248  0.48050012
   0.19155225  0.29881314  0.50923070
   0.80104580  0.67071742  0.53782366
   0.82414395  0.30640887  0.48288613
   0.17800899  0.48001506  0.69426084
   0.33288495  0.54585463  0.18226633
   0.69852365  0.47325833  0.21967490
   0.68398406  0.50667836  0.80341891
   0.47677417  0.19800712  0.66971538
   0.47677417  0.83041902  0.30212728
   0.52766259  0.17532267  0.32481174
   0.53026309  0.81529365  0.68484075
   0.49502700  0.50316123  0.49762838
   0.49502700  0.00250603  0.99697317
   0.00587254  0.49335205  0.00678235
   0.98469129  0.98956722  0.51056719
   0.10744439  0.86673775  0.63339666
   0.10781209  0.11270790  0.38742651
   0.87118904  0.86262342  0.38699812
   0.87118904  0.11313629  0.63751098
   0.88533789  0.61685250  0.12931212
   0.88533789  0.37082228  0.88328191
   0.13684799  0.61179420  0.88834021
   0.14316770  0.37943751  0.12069689
   0.61326762  0.11886743  0.86491207
   0.62566471  0.89093646  0.12223139
   0.37967516  0.13037142  0.11960857
   0.37633101  0.87160859  0.88161364
   0.61326762  0.63522233  0.38126698
   0.62566471  0.37790302  0.60919795
   0.37633101  0.61852077  0.62852581
   0.37967516  0.38052584  0.36976298
   0.74052089  0.73684721  0.76328720
   0.75015769  0.24208662  0.25804779
   0.25109966  0.76265086  0.24683678
   0.25109966  0.25329763  0.73748355
   0.00221803  0.99557423  0.00733733
   0.00221803  0.49279707  0.50456018
   0.46118656  0.98852291  0.51161150
   0.53684360  0.48496286  0.01517154
