  52  52   0  16
  0.1851995E+02  0.9875241E-09  0.9875241E-09  0.9875241E-09  0.2000000E-15
  1.000000000000000E-004
  CAR 
 unknown system                          
     12.13250235    -45.53773985  301      1.22321487      1.00000000
    -45.538  0.0000E+00  0.0000E+00  0.0000E+00  0.0000E+00
    -45.346  0.0000E+00  0.0000E+00  0.0000E+00  0.0000E+00
    -45.153  0.0000E+00  0.0000E+00  0.0000E+00  0.0000E+00
    -44.961  0.0000E+00  0.0000E+00  0.0000E+00  0.0000E+00
    -44.769  0.0000E+00  0.0000E+00  0.0000E+00  0.0000E+00
    -44.577  0.0000E+00  0.0000E+00  0.0000E+00  0.0000E+00
    -44.384  0.0000E+00  0.0000E+00  0.0000E+00  0.0000E+00
    -44.192  0.0000E+00  0.0000E+00  0.0000E+00  0.0000E+00
    -44.000  0.0000E+00  0.0000E+00  0.0000E+00  0.0000E+00
    -43.808  0.0000E+00  0.0000E+00  0.0000E+00  0.0000E+00
    -43.615  0.0000E+00  0.0000E+00  0.0000E+00  0.0000E+00
    -43.423  0.0000E+00  0.0000E+00  0.0000E+00  0.0000E+00
    -43.231  0.0000E+00  0.0000E+00  0.0000E+00  0.0000E+00
    -43.039  0.8162E-10  0.8161E-10  0.1569E-10  0.1569E-10
    -42.846  0.7292E-01  0.7292E-01  0.1402E-01  0.1402E-01
    -42.654  0.5189E-01  0.5189E-01  0.2400E-01  0.2400E-01
    -42.462  0.0000E+00  0.0000E+00  0.2400E-01  0.2400E-01
    -42.270  0.0000E+00  0.0000E+00  0.2400E-01  0.2400E-01
    -42.078  0.0000E+00  0.0000E+00  0.2400E-01  0.2400E-01
    -41.885  0.0000E+00  0.0000E+00  0.2400E-01  0.2400E-01
    -41.693  0.0000E+00  0.0000E+00  0.2400E-01  0.2400E-01
    -41.501  0.0000E+00  0.0000E+00  0.2400E-01  0.2400E-01
    -41.309  0.0000E+00  0.0000E+00  0.2400E-01  0.2400E-01
    -41.116  0.0000E+00  0.0000E+00  0.2400E-01  0.2400E-01
    -40.924  0.0000E+00  0.0000E+00  0.2400E-01  0.2400E-01
    -40.732  0.0000E+00  0.0000E+00  0.2400E-01  0.2400E-01
    -40.540  0.0000E+00  0.0000E+00  0.2400E-01  0.2400E-01
    -40.347  0.0000E+00  0.0000E+00  0.2400E-01  0.2400E-01
    -40.155  0.0000E+00  0.0000E+00  0.2400E-01  0.2400E-01
    -39.963  0.0000E+00  0.0000E+00  0.2400E-01  0.2400E-01
    -39.771  0.0000E+00  0.0000E+00  0.2400E-01  0.2400E-01
    -39.578  0.0000E+00  0.0000E+00  0.2400E-01  0.2400E-01
    -39.386  0.0000E+00  0.0000E+00  0.2400E-01  0.2400E-01
    -39.194  0.0000E+00  0.0000E+00  0.2400E-01  0.2400E-01
    -39.002  0.0000E+00  0.0000E+00  0.2400E-01  0.2400E-01
    -38.810  0.0000E+00  0.0000E+00  0.2400E-01  0.2400E-01
    -38.617  0.0000E+00  0.0000E+00  0.2400E-01  0.2400E-01
    -38.425  0.0000E+00  0.0000E+00  0.2400E-01  0.2400E-01
    -38.233  0.0000E+00  0.0000E+00  0.2400E-01  0.2400E-01
    -38.041  0.0000E+00  0.0000E+00  0.2400E-01  0.2400E-01
    -37.848  0.0000E+00  0.0000E+00  0.2400E-01  0.2400E-01
    -37.656  0.0000E+00  0.0000E+00  0.2400E-01  0.2400E-01
    -37.464  0.0000E+00  0.0000E+00  0.2400E-01  0.2400E-01
    -37.272  0.0000E+00  0.0000E+00  0.2400E-01  0.2400E-01
    -37.079  0.0000E+00  0.0000E+00  0.2400E-01  0.2400E-01
    -36.887  0.0000E+00  0.0000E+00  0.2400E-01  0.2400E-01
    -36.695  0.0000E+00  0.0000E+00  0.2400E-01  0.2400E-01
    -36.503  0.0000E+00  0.0000E+00  0.2400E-01  0.2400E-01
    -36.311  0.0000E+00  0.0000E+00  0.2400E-01  0.2400E-01
    -36.118  0.0000E+00  0.0000E+00  0.2400E-01  0.2400E-01
    -35.926  0.0000E+00  0.0000E+00  0.2400E-01  0.2400E-01
    -35.734  0.0000E+00  0.0000E+00  0.2400E-01  0.2400E-01
    -35.542  0.0000E+00  0.0000E+00  0.2400E-01  0.2400E-01
    -35.349  0.0000E+00  0.0000E+00  0.2400E-01  0.2400E-01
    -35.157  0.0000E+00  0.0000E+00  0.2400E-01  0.2400E-01
    -34.965  0.0000E+00  0.0000E+00  0.2400E-01  0.2400E-01
    -34.773  0.0000E+00  0.0000E+00  0.2400E-01  0.2400E-01
    -34.580  0.0000E+00  0.0000E+00  0.2400E-01  0.2400E-01
    -34.388  0.0000E+00  0.0000E+00  0.2400E-01  0.2400E-01
    -34.196  0.0000E+00  0.0000E+00  0.2400E-01  0.2400E-01
    -34.004  0.0000E+00  0.0000E+00  0.2400E-01  0.2400E-01
    -33.811  0.0000E+00  0.0000E+00  0.2400E-01  0.2400E-01
    -33.619  0.0000E+00  0.0000E+00  0.2400E-01  0.2400E-01
    -33.427  0.0000E+00  0.0000E+00  0.2400E-01  0.2400E-01
    -33.235  0.0000E+00  0.0000E+00  0.2400E-01  0.2400E-01
    -33.043  0.0000E+00  0.0000E+00  0.2400E-01  0.2400E-01
    -32.850  0.0000E+00  0.0000E+00  0.2400E-01  0.2400E-01
    -32.658  0.0000E+00  0.0000E+00  0.2400E-01  0.2400E-01
    -32.466  0.0000E+00  0.0000E+00  0.2400E-01  0.2400E-01
    -32.274  0.0000E+00  0.0000E+00  0.2400E-01  0.2400E-01
    -32.081  0.0000E+00  0.0000E+00  0.2400E-01  0.2400E-01
    -31.889  0.0000E+00  0.0000E+00  0.2400E-01  0.2400E-01
    -31.697  0.0000E+00  0.0000E+00  0.2400E-01  0.2400E-01
    -31.505  0.0000E+00  0.0000E+00  0.2400E-01  0.2400E-01
    -31.312  0.0000E+00  0.0000E+00  0.2400E-01  0.2400E-01
    -31.120  0.0000E+00  0.0000E+00  0.2400E-01  0.2400E-01
    -30.928  0.0000E+00  0.0000E+00  0.2400E-01  0.2400E-01
    -30.736  0.0000E+00  0.0000E+00  0.2400E-01  0.2400E-01
    -30.543  0.0000E+00  0.0000E+00  0.2400E-01  0.2400E-01
    -30.351  0.0000E+00  0.0000E+00  0.2400E-01  0.2400E-01
    -30.159  0.0000E+00  0.0000E+00  0.2400E-01  0.2400E-01
    -29.967  0.0000E+00  0.0000E+00  0.2400E-01  0.2400E-01
    -29.775  0.0000E+00  0.0000E+00  0.2400E-01  0.2400E-01
    -29.582  0.0000E+00  0.0000E+00  0.2400E-01  0.2400E-01
    -29.390  0.0000E+00  0.0000E+00  0.2400E-01  0.2400E-01
    -29.198  0.0000E+00  0.0000E+00  0.2400E-01  0.2400E-01
    -29.006  0.0000E+00  0.0000E+00  0.2400E-01  0.2400E-01
    -28.813  0.0000E+00  0.0000E+00  0.2400E-01  0.2400E-01
    -28.621  0.0000E+00  0.0000E+00  0.2400E-01  0.2400E-01
    -28.429  0.0000E+00  0.0000E+00  0.2400E-01  0.2400E-01
    -28.237  0.0000E+00  0.0000E+00  0.2400E-01  0.2400E-01
    -28.044  0.0000E+00  0.0000E+00  0.2400E-01  0.2400E-01
    -27.852  0.0000E+00  0.0000E+00  0.2400E-01  0.2400E-01
    -27.660  0.0000E+00  0.0000E+00  0.2400E-01  0.2400E-01
    -27.468  0.0000E+00  0.0000E+00  0.2400E-01  0.2400E-01
    -27.275  0.0000E+00  0.0000E+00  0.2400E-01  0.2400E-01
    -27.083  0.0000E+00  0.0000E+00  0.2400E-01  0.2400E-01
    -26.891  0.0000E+00  0.0000E+00  0.2400E-01  0.2400E-01
    -26.699  0.0000E+00  0.0000E+00  0.2400E-01  0.2400E-01
    -26.507  0.0000E+00  0.0000E+00  0.2400E-01  0.2400E-01
    -26.314  0.0000E+00  0.0000E+00  0.2400E-01  0.2400E-01
    -26.122  0.0000E+00  0.0000E+00  0.2400E-01  0.2400E-01
    -25.930  0.0000E+00  0.0000E+00  0.2400E-01  0.2400E-01
    -25.738  0.0000E+00  0.0000E+00  0.2400E-01  0.2400E-01
    -25.545  0.0000E+00  0.0000E+00  0.2400E-01  0.2400E-01
    -25.353  0.0000E+00  0.0000E+00  0.2400E-01  0.2400E-01
    -25.161  0.0000E+00  0.0000E+00  0.2400E-01  0.2400E-01
    -24.969  0.0000E+00  0.0000E+00  0.2400E-01  0.2400E-01
    -24.776  0.0000E+00  0.0000E+00  0.2400E-01  0.2400E-01
    -24.584  0.0000E+00  0.0000E+00  0.2400E-01  0.2400E-01
    -24.392  0.0000E+00  0.0000E+00  0.2400E-01  0.2400E-01
    -24.200  0.0000E+00  0.0000E+00  0.2400E-01  0.2400E-01
    -24.008  0.0000E+00  0.0000E+00  0.2400E-01  0.2400E-01
    -23.815  0.0000E+00  0.0000E+00  0.2400E-01  0.2400E-01
    -23.623  0.0000E+00  0.0000E+00  0.2400E-01  0.2400E-01
    -23.431  0.0000E+00  0.0000E+00  0.2400E-01  0.2400E-01
    -23.239  0.0000E+00  0.0000E+00  0.2400E-01  0.2400E-01
    -23.046  0.0000E+00  0.0000E+00  0.2400E-01  0.2400E-01
    -22.854  0.0000E+00  0.0000E+00  0.2400E-01  0.2400E-01
    -22.662  0.0000E+00  0.0000E+00  0.2400E-01  0.2400E-01
    -22.470  0.0000E+00  0.0000E+00  0.2400E-01  0.2400E-01
    -22.277  0.0000E+00  0.0000E+00  0.2400E-01  0.2400E-01
    -22.085  0.0000E+00  0.0000E+00  0.2400E-01  0.2400E-01
    -21.893  0.0000E+00  0.0000E+00  0.2400E-01  0.2400E-01
    -21.701  0.0000E+00  0.0000E+00  0.2400E-01  0.2400E-01
    -21.508  0.0000E+00  0.0000E+00  0.2400E-01  0.2400E-01
    -21.316  0.0000E+00  0.0000E+00  0.2400E-01  0.2400E-01
    -21.124  0.0000E+00  0.0000E+00  0.2400E-01  0.2400E-01
    -20.932  0.0000E+00  0.0000E+00  0.2400E-01  0.2400E-01
    -20.740  0.0000E+00  0.0000E+00  0.2400E-01  0.2400E-01
    -20.547  0.0000E+00  0.0000E+00  0.2400E-01  0.2400E-01
    -20.355  0.0000E+00  0.0000E+00  0.2400E-01  0.2400E-01
    -20.163  0.0000E+00  0.0000E+00  0.2400E-01  0.2400E-01
    -19.971  0.0000E+00  0.0000E+00  0.2400E-01  0.2400E-01
    -19.778  0.0000E+00  0.0000E+00  0.2400E-01  0.2400E-01
    -19.586  0.0000E+00  0.0000E+00  0.2400E-01  0.2400E-01
    -19.394  0.0000E+00  0.0000E+00  0.2400E-01  0.2400E-01
    -19.202  0.0000E+00  0.0000E+00  0.2400E-01  0.2400E-01
    -19.009  0.0000E+00  0.0000E+00  0.2400E-01  0.2400E-01
    -18.817  0.0000E+00  0.0000E+00  0.2400E-01  0.2400E-01
    -18.625  0.0000E+00  0.0000E+00  0.2400E-01  0.2400E-01
    -18.433  0.0000E+00  0.0000E+00  0.2400E-01  0.2400E-01
    -18.240  0.0000E+00  0.0000E+00  0.2400E-01  0.2400E-01
    -18.048  0.0000E+00  0.0000E+00  0.2400E-01  0.2400E-01
    -17.856  0.0000E+00  0.0000E+00  0.2400E-01  0.2400E-01
    -17.664  0.0000E+00  0.0000E+00  0.2400E-01  0.2400E-01
    -17.472  0.0000E+00  0.0000E+00  0.2400E-01  0.2400E-01
    -17.279  0.0000E+00  0.0000E+00  0.2400E-01  0.2400E-01
    -17.087  0.0000E+00  0.0000E+00  0.2400E-01  0.2400E-01
    -16.895  0.0000E+00  0.0000E+00  0.2400E-01  0.2400E-01
    -16.703  0.0000E+00  0.0000E+00  0.2400E-01  0.2400E-01
    -16.510  0.0000E+00  0.0000E+00  0.2400E-01  0.2400E-01
    -16.318  0.0000E+00  0.0000E+00  0.2400E-01  0.2400E-01
    -16.126  0.0000E+00  0.0000E+00  0.2400E-01  0.2400E-01
    -15.934  0.0000E+00  0.0000E+00  0.2400E-01  0.2400E-01
    -15.741  0.0000E+00  0.0000E+00  0.2400E-01  0.2400E-01
    -15.549  0.0000E+00  0.0000E+00  0.2400E-01  0.2400E-01
    -15.357  0.0000E+00  0.0000E+00  0.2400E-01  0.2400E-01
    -15.165  0.0000E+00  0.0000E+00  0.2400E-01  0.2400E-01
    -14.973  0.0000E+00  0.0000E+00  0.2400E-01  0.2400E-01
    -14.780  0.0000E+00  0.0000E+00  0.2400E-01  0.2400E-01
    -14.588  0.0000E+00  0.0000E+00  0.2400E-01  0.2400E-01
    -14.396  0.0000E+00  0.0000E+00  0.2400E-01  0.2400E-01
    -14.204  0.0000E+00  0.0000E+00  0.2400E-01  0.2400E-01
    -14.011  0.0000E+00  0.0000E+00  0.2400E-01  0.2400E-01
    -13.819  0.0000E+00  0.0000E+00  0.2400E-01  0.2400E-01
    -13.627  0.3686E-06  0.3689E-06  0.2400E-01  0.2400E-01
    -13.435  0.2081E-01  0.2081E-01  0.2800E-01  0.2800E-01
    -13.242  0.0000E+00  0.0000E+00  0.2800E-01  0.2800E-01
    -13.050  0.0000E+00  0.0000E+00  0.2800E-01  0.2800E-01
    -12.858  0.0000E+00  0.0000E+00  0.2800E-01  0.2800E-01
    -12.666  0.2237E-03  0.2238E-03  0.2804E-01  0.2804E-01
    -12.473  0.2058E-01  0.2058E-01  0.3200E-01  0.3200E-01
    -12.281  0.0000E+00  0.0000E+00  0.3200E-01  0.3200E-01
    -12.089  0.0000E+00  0.0000E+00  0.3200E-01  0.3200E-01
    -11.897  0.0000E+00  0.0000E+00  0.3200E-01  0.3200E-01
    -11.705  0.0000E+00  0.0000E+00  0.3200E-01  0.3200E-01
    -11.512  0.0000E+00  0.0000E+00  0.3200E-01  0.3200E-01
    -11.320  0.0000E+00  0.0000E+00  0.3200E-01  0.3200E-01
    -11.128  0.0000E+00  0.0000E+00  0.3200E-01  0.3200E-01
    -10.936  0.7709E-13  0.7715E-13  0.3200E-01  0.3200E-01
    -10.743  0.7894E-02  0.7894E-02  0.3352E-01  0.3352E-01
    -10.551  0.2587E-01  0.2587E-01  0.3850E-01  0.3850E-01
    -10.359  0.2860E-01  0.2860E-01  0.4400E-01  0.4400E-01
    -10.167  0.0000E+00  0.0000E+00  0.4400E-01  0.4400E-01
     -9.974  0.0000E+00  0.0000E+00  0.4400E-01  0.4400E-01
     -9.782  0.0000E+00  0.0000E+00  0.4400E-01  0.4400E-01
     -9.590  0.0000E+00  0.0000E+00  0.4400E-01  0.4400E-01
     -9.398  0.0000E+00  0.0000E+00  0.4400E-01  0.4400E-01
     -9.205  0.0000E+00  0.0000E+00  0.4400E-01  0.4400E-01
     -9.013  0.3556E-02  0.3556E-02  0.4468E-01  0.4468E-01
     -8.821  0.1695E-01  0.1695E-01  0.4794E-01  0.4794E-01
     -8.629  0.3030E-03  0.3029E-03  0.4800E-01  0.4800E-01
     -8.437  0.0000E+00  0.0000E+00  0.4800E-01  0.4800E-01
     -8.244  0.0000E+00  0.0000E+00  0.4800E-01  0.4800E-01
     -8.052  0.0000E+00  0.0000E+00  0.4800E-01  0.4800E-01
     -7.860  0.0000E+00  0.0000E+00  0.4800E-01  0.4800E-01
     -7.668  0.0000E+00  0.0000E+00  0.4800E-01  0.4800E-01
     -7.475  0.0000E+00  0.0000E+00  0.4800E-01  0.4800E-01
     -7.283  0.0000E+00  0.0000E+00  0.4800E-01  0.4800E-01
     -7.091  0.0000E+00  0.0000E+00  0.4800E-01  0.4800E-01
     -6.899  0.0000E+00  0.0000E+00  0.4800E-01  0.4800E-01
     -6.706  0.1182E-06  0.1183E-06  0.4800E-01  0.4800E-01
     -6.514  0.5202E-02  0.5202E-02  0.4900E-01  0.4900E-01
     -6.322  0.2373E-03  0.2374E-03  0.4905E-01  0.4905E-01
     -6.130  0.1537E-01  0.1537E-01  0.5200E-01  0.5200E-01
     -5.938  0.0000E+00  0.0000E+00  0.5200E-01  0.5200E-01
     -5.745  0.0000E+00  0.0000E+00  0.5200E-01  0.5200E-01
     -5.553  0.0000E+00  0.0000E+00  0.5200E-01  0.5200E-01
     -5.361  0.0000E+00  0.0000E+00  0.5200E-01  0.5200E-01
     -5.169  0.0000E+00  0.0000E+00  0.5200E-01  0.5200E-01
     -4.976  0.0000E+00  0.0000E+00  0.5200E-01  0.5200E-01
     -4.784  0.0000E+00  0.0000E+00  0.5200E-01  0.5200E-01
     -4.592  0.0000E+00  0.0000E+00  0.5200E-01  0.5200E-01
     -4.400  0.0000E+00  0.0000E+00  0.5200E-01  0.5200E-01
     -4.207  0.0000E+00  0.0000E+00  0.5200E-01  0.5200E-01
     -4.015  0.0000E+00  0.0000E+00  0.5200E-01  0.5200E-01
     -3.823  0.5941E-08  0.5950E-08  0.5200E-01  0.5200E-01
     -3.631  0.1385E-01  0.1385E-01  0.5466E-01  0.5466E-01
     -3.438  0.1760E-02  0.1759E-02  0.5500E-01  0.5500E-01
     -3.246  0.5689E-02  0.5689E-02  0.5609E-01  0.5609E-01
     -3.054  0.1971E-01  0.1971E-01  0.5988E-01  0.5988E-01
     -2.862  0.2012E-01  0.2012E-01  0.6376E-01  0.6376E-01
     -2.670  0.1190E-02  0.1190E-02  0.6400E-01  0.6400E-01
     -2.477  0.0000E+00  0.0000E+00  0.6400E-01  0.6400E-01
     -2.285  0.0000E+00  0.0000E+00  0.6400E-01  0.6400E-01
     -2.093  0.0000E+00  0.0000E+00  0.6400E-01  0.6400E-01
     -1.901  0.0000E+00  0.0000E+00  0.6400E-01  0.6400E-01
     -1.708  0.1090E-02  0.1090E-02  0.6421E-01  0.6421E-01
     -1.516  0.2692E-01  0.2692E-01  0.6938E-01  0.6938E-01
     -1.324  0.1599E-01  0.1599E-01  0.7246E-01  0.7246E-01
     -1.132  0.1833E-01  0.1833E-01  0.7598E-01  0.7598E-01
     -0.939  0.5290E-02  0.5290E-02  0.7700E-01  0.7700E-01
     -0.747  0.1168E-01  0.1168E-01  0.7925E-01  0.7925E-01
     -0.555  0.2139E-01  0.2139E-01  0.8336E-01  0.8336E-01
     -0.363  0.2975E-01  0.2975E-01  0.8909E-01  0.8909E-01
     -0.170  0.2055E-01  0.2055E-01  0.9304E-01  0.9304E-01
      0.022  0.1539E-01  0.1539E-01  0.9600E-01  0.9600E-01
      0.214  0.7263E-04  0.7268E-04  0.9601E-01  0.9601E-01
      0.406  0.2625E-01  0.2625E-01  0.1011E+00  0.1011E+00
      0.598  0.2710E-01  0.2710E-01  0.1063E+00  0.1063E+00
      0.791  0.2590E-01  0.2590E-01  0.1113E+00  0.1113E+00
      0.983  0.3372E-01  0.3372E-01  0.1177E+00  0.1177E+00
      1.175  0.1177E-01  0.1177E-01  0.1200E+00  0.1200E+00
      1.367  0.0000E+00  0.0000E+00  0.1200E+00  0.1200E+00
      1.560  0.0000E+00  0.0000E+00  0.1200E+00  0.1200E+00
      1.752  0.0000E+00  0.0000E+00  0.1200E+00  0.1200E+00
      1.944  0.0000E+00  0.0000E+00  0.1200E+00  0.1200E+00
      2.136  0.0000E+00  0.0000E+00  0.1200E+00  0.1200E+00
      2.329  0.0000E+00  0.0000E+00  0.1200E+00  0.1200E+00
      2.521  0.0000E+00  0.0000E+00  0.1200E+00  0.1200E+00
      2.713  0.0000E+00  0.0000E+00  0.1200E+00  0.1200E+00
      2.905  0.0000E+00  0.0000E+00  0.1200E+00  0.1200E+00
      3.097  0.0000E+00  0.0000E+00  0.1200E+00  0.1200E+00
      3.290  0.0000E+00  0.0000E+00  0.1200E+00  0.1200E+00
      3.482  0.0000E+00  0.0000E+00  0.1200E+00  0.1200E+00
      3.674  0.1451E-14  0.1456E-14  0.1200E+00  0.1200E+00
      3.866  0.5035E-02  0.5035E-02  0.1210E+00  0.1210E+00
      4.059  0.1667E-03  0.1665E-03  0.1210E+00  0.1210E+00
      4.251  0.0000E+00  0.0000E+00  0.1210E+00  0.1210E+00
      4.443  0.0000E+00  0.0000E+00  0.1210E+00  0.1210E+00
      4.635  0.4926E-02  0.4927E-02  0.1219E+00  0.1219E+00
      4.828  0.1068E-01  0.1068E-01  0.1240E+00  0.1240E+00
      5.020  0.0000E+00  0.0000E+00  0.1240E+00  0.1240E+00
      5.212  0.1541E-06  0.1545E-06  0.1240E+00  0.1240E+00
      5.404  0.1045E-01  0.1045E-01  0.1260E+00  0.1260E+00
      5.597  0.1454E-01  0.1454E-01  0.1288E+00  0.1288E+00
      5.789  0.6189E-02  0.6188E-02  0.1300E+00  0.1300E+00
      5.981  0.5077E-02  0.5078E-02  0.1310E+00  0.1310E+00
      6.173  0.1387E-01  0.1387E-01  0.1336E+00  0.1336E+00
      6.365  0.1226E-01  0.1226E-01  0.1360E+00  0.1360E+00
      6.558  0.5196E-02  0.5196E-02  0.1370E+00  0.1370E+00
      6.750  0.9833E-04  0.9850E-04  0.1370E+00  0.1370E+00
      6.942  0.1118E-01  0.1118E-01  0.1392E+00  0.1392E+00
      7.134  0.9936E-02  0.9936E-02  0.1411E+00  0.1411E+00
      7.327  0.1226E-01  0.1226E-01  0.1434E+00  0.1434E+00
      7.519  0.9587E-02  0.9590E-02  0.1453E+00  0.1453E+00
      7.711  0.1418E-01  0.1418E-01  0.1480E+00  0.1480E+00
      7.903  0.1406E-01  0.1408E-01  0.1507E+00  0.1507E+00
      8.096  0.1234E-01  0.1234E-01  0.1531E+00  0.1531E+00
      8.288  0.1353E-01  0.1352E-01  0.1557E+00  0.1557E+00
      8.480  0.2078E-01  0.2084E-01  0.1597E+00  0.1597E+00
      8.672  0.1803E-01  0.1827E-01  0.1631E+00  0.1632E+00
      8.865  0.2314E-01  0.2316E-01  0.1676E+00  0.1677E+00
      9.057  0.1741E-01  0.1769E-01  0.1709E+00  0.1711E+00
      9.249  0.1442E-01  0.1318E-01  0.1737E+00  0.1736E+00
      9.441  0.6355E-02  0.9019E-02  0.1749E+00  0.1753E+00
      9.633  0.5540E-02  0.3473E-02  0.1760E+00  0.1760E+00
      9.826  0.0000E+00  0.0000E+00  0.1760E+00  0.1760E+00
     10.018  0.0000E+00  0.0000E+00  0.1760E+00  0.1760E+00
     10.210  0.0000E+00  0.0000E+00  0.1760E+00  0.1760E+00
     10.402  0.0000E+00  0.0000E+00  0.1760E+00  0.1760E+00
     10.595  0.0000E+00  0.0000E+00  0.1760E+00  0.1760E+00
     10.787  0.0000E+00  0.0000E+00  0.1760E+00  0.1760E+00
     10.979  0.0000E+00  0.0000E+00  0.1760E+00  0.1760E+00
     11.171  0.0000E+00  0.0000E+00  0.1760E+00  0.1760E+00
     11.364  0.0000E+00  0.0000E+00  0.1760E+00  0.1760E+00
     11.556  0.0000E+00  0.0000E+00  0.1760E+00  0.1760E+00
     11.748  0.0000E+00  0.0000E+00  0.1760E+00  0.1760E+00
     11.940  0.0000E+00  0.0000E+00  0.1760E+00  0.1760E+00
     12.133  0.0000E+00  0.0000E+00  0.1760E+00  0.1760E+00
