       N       E                     dE             d eps       ncg     rms          rms(c)
DAV:   1     0.160128065039E+04    0.16013E+04   -0.11278E+05  1560   0.125E+03
DAV:   2    -0.510191842775E+02   -0.16523E+04   -0.15519E+04  1920   0.353E+02
DAV:   3    -0.230831683196E+03   -0.17981E+03   -0.17778E+03  1912   0.119E+02
DAV:   4    -0.243706936445E+03   -0.12875E+02   -0.12852E+02  2320   0.325E+01
DAV:   5    -0.243952244665E+03   -0.24531E+00   -0.24521E+00  2328   0.469E+00
DAV:   6    -0.243963202072E+03   -0.10957E-01   -0.10956E-01  2288   0.104E+00
DAV:   7    -0.243963747730E+03   -0.54566E-03   -0.54563E-03  2328   0.226E-01
DAV:   8    -0.243963784684E+03   -0.36955E-04   -0.36954E-04  2264   0.626E-02
DAV:   9    -0.243963787376E+03   -0.26914E-05   -0.26909E-05  2240   0.152E-02
DAV:  10    -0.243963787550E+03   -0.17447E-06   -0.17457E-06  1352   0.471E-03    0.652E+01
RMM:  11    -0.231592623853E+03    0.12371E+02   -0.55877E+01  1408   0.204E+01    0.332E+01
RMM:  12    -0.255781354500E+03   -0.24189E+02   -0.30024E+01  1491   0.145E+01    0.209E+01
RMM:  13    -0.258382439995E+03   -0.26011E+01   -0.10213E+01  1452   0.564E+00    0.765E+00
RMM:  14    -0.258667462073E+03   -0.28502E+00   -0.25800E+00  1831   0.358E+00    0.348E+00
RMM:  15    -0.258620328808E+03    0.47133E-01   -0.43330E-01  1484   0.181E+00    0.765E-01
RMM:  16    -0.258646540912E+03   -0.26212E-01   -0.15887E-01  1576   0.105E+00    0.347E-01
RMM:  17    -0.258654244784E+03   -0.77039E-02   -0.34852E-02  1740   0.519E-01    0.202E-01
RMM:  18    -0.258656233803E+03   -0.19890E-02   -0.90332E-03  1691   0.229E-01    0.105E-01
RMM:  19    -0.258657182314E+03   -0.94851E-03   -0.25756E-03  1802   0.125E-01    0.503E-02
RMM:  20    -0.258657367668E+03   -0.18535E-03   -0.81828E-04  1920   0.650E-02    0.278E-02
RMM:  21    -0.258657409239E+03   -0.41571E-04   -0.24859E-04  1690   0.351E-02    0.112E-02
RMM:  22    -0.258657421463E+03   -0.12224E-04   -0.84791E-05  1900   0.196E-02    0.722E-03
RMM:  23    -0.258657421774E+03   -0.31148E-06   -0.17745E-05  1696   0.977E-03    0.360E-03
RMM:  24    -0.258657421465E+03    0.30973E-06   -0.72340E-06  1320   0.657E-03
   1 F= -.27129320E+03 E0= -.27129320E+03  d E =-.271293E+03  mag=    -0.0006
       N       E                     dE             d eps       ncg     rms          rms(c)
DAV:   1    -0.258657425583E+03   -0.38085E-05   -0.50387E-05  1672   0.150E-02    0.199E-03
RMM:   2    -0.258657425981E+03   -0.39827E-06   -0.23763E-06  1009   0.578E-03
   2 F= -.27129320E+03 E0= -.27129320E+03  d E =-.158236E-05  mag=    -0.0001
