unknown system                          
           1
     9.875241    0.000000    0.000000
     0.000000    9.875241    0.000000
     0.000000    0.000000    9.875241
   Li   P    S    Cl
    24     4    20     4
Direct configuration=     1
   0.97465330  0.30995789  0.30079398
   0.97896333  0.78588305  0.81225391
   0.02103506  0.28585271  0.68776272
   0.02536009  0.80999856  0.19919151
   0.25000000  0.25000000  0.95645724
   0.25000000  0.75000000  0.02160368
   0.75000000  0.25000000  0.02163142
   0.75000000  0.75000000  0.00539291
   0.31000866  0.97464208  0.30078665
   0.28592556  0.02104418  0.68770909
   0.78589550  0.97895696  0.81227474
   0.80996797  0.02534432  0.19922853
   0.25000000  0.75000000  0.47837206
   0.25000000  0.25000000  0.49460757
   0.75000000  0.75000000  0.54354321
   0.75000000  0.25000000  0.47839377
   0.21407444  0.47895582  0.68770909
   0.18999134  0.52535792  0.30078665
   0.69003203  0.47465568  0.19922853
   0.71410450  0.52104304  0.81227474
   0.47896494  0.21414729  0.68776272
   0.47463991  0.69000144  0.19919151
   0.52534670  0.19004211  0.30079398
   0.52103667  0.71411695  0.81225391
   0.50787797  0.50789468  0.49651078
   0.49211586  0.00788849  0.00348715
   0.00788414  0.49211151  0.00348715
   0.99212203  0.99210532  0.49651078
   0.10955668  0.87315336  0.62179370
   0.10484796  0.10482741  0.36332654
   0.87103223  0.87099512  0.37977620
   0.87314323  0.10952389  0.62178604
   0.89516779  0.60484329  0.13667319
   0.89045146  0.37314728  0.87821437
   0.12685070  0.60953247  0.87820518
   0.12898101  0.37100836  0.12022361
   0.60954854  0.12685272  0.87821437
   0.60483221  0.89515671  0.13667319
   0.37101899  0.12899164  0.12022361
   0.37314930  0.89046753  0.87820518
   0.62896777  0.62900488  0.37977620
   0.62685677  0.39047611  0.62178604
   0.39044332  0.62684664  0.62179370
   0.39515204  0.39517259  0.36332654
   0.75000000  0.75000000  0.77171741
   0.75000000  0.25000000  0.25001262
   0.25000000  0.75000000  0.24998784
   0.25000000  0.25000000  0.72828306
   0.95261397  0.95262780  0.00588714
   0.04736386  0.45260718  0.49411357
   0.45263614  0.04739282  0.49411357
   0.54738603  0.54737220  0.00588714
Direct configuration=     2
   0.97465397  0.30995896  0.30079242
   0.97896402  0.78588401  0.81225589
   0.02103436  0.28585389  0.68776058
   0.02535938  0.80999942  0.19919314
   0.25000000  0.25000000  0.95645684
   0.25000000  0.75000000  0.02160285
   0.75000000  0.25000000  0.02163038
   0.75000000  0.75000000  0.00539425
   0.31000946  0.97464278  0.30078514
   0.28592618  0.02104341  0.68770740
   0.78589637  0.97895770  0.81227653
   0.80996890  0.02534367  0.19922993
   0.25000000  0.75000000  0.47837304
   0.25000000  0.25000000  0.49460624
   0.75000000  0.75000000  0.54354360
   0.75000000  0.25000000  0.47839463
   0.21407382  0.47895659  0.68770740
   0.18999054  0.52535722  0.30078514
   0.69003110  0.47465633  0.19922993
   0.71410363  0.52104230  0.81227653
   0.47896564  0.21414611  0.68776058
   0.47464062  0.69000058  0.19919314
   0.52534603  0.19004104  0.30079242
   0.52103598  0.71411599  0.81225589
   0.50787948  0.50789525  0.49651306
   0.49211465  0.00788933  0.00348582
   0.00788535  0.49211067  0.00348582
   0.99212052  0.99210475  0.49651306
   0.10955576  0.87315495  0.62179296
   0.10484656  0.10482608  0.36332560
   0.87103292  0.87099599  0.37977806
   0.87314514  0.10952296  0.62178511
   0.89516933  0.60484174  0.13667390
   0.89045228  0.37314888  0.87821496
   0.12684900  0.60953162  0.87820597
   0.12898011  0.37100933  0.12022157
   0.60954772  0.12685112  0.87821496
   0.60483067  0.89515826  0.13667390
   0.37101989  0.12899067  0.12022157
   0.37315100  0.89046838  0.87820597
   0.62896708  0.62900401  0.37977806
   0.62685486  0.39047704  0.62178511
   0.39044424  0.62684505  0.62179296
   0.39515344  0.39517392  0.36332560
   0.75000000  0.75000000  0.77171849
   0.75000000  0.25000000  0.25001249
   0.25000000  0.75000000  0.24998793
   0.25000000  0.25000000  0.72828186
   0.95261632  0.95263020  0.00588882
   0.04736136  0.45260938  0.49411185
   0.45263864  0.04739062  0.49411185
   0.54738368  0.54736980  0.00588882
