  52  52   0   4
  0.1728161E+02  0.9650043E-09  0.9650043E-09  0.9650043E-09  0.2000000E-15
  1.000000000000000E-004
  CAR 
 unknown system                          
     12.64183342    -45.22975177  301      2.08026912      1.00000000
    -45.230  0.0000E+00  0.0000E+00  0.0000E+00  0.0000E+00
    -45.037  0.0000E+00  0.0000E+00  0.0000E+00  0.0000E+00
    -44.844  0.0000E+00  0.0000E+00  0.0000E+00  0.0000E+00
    -44.651  0.0000E+00  0.0000E+00  0.0000E+00  0.0000E+00
    -44.458  0.0000E+00  0.0000E+00  0.0000E+00  0.0000E+00
    -44.265  0.0000E+00  0.0000E+00  0.0000E+00  0.0000E+00
    -44.072  0.0000E+00  0.0000E+00  0.0000E+00  0.0000E+00
    -43.879  0.0000E+00  0.0000E+00  0.0000E+00  0.0000E+00
    -43.687  0.0000E+00  0.0000E+00  0.0000E+00  0.0000E+00
    -43.494  0.0000E+00  0.0000E+00  0.0000E+00  0.0000E+00
    -43.301  0.0000E+00  0.0000E+00  0.0000E+00  0.0000E+00
    -43.108  0.0000E+00  0.0000E+00  0.0000E+00  0.0000E+00
    -42.915  0.0000E+00  0.0000E+00  0.0000E+00  0.0000E+00
    -42.722  0.1904E-10  0.1904E-10  0.3673E-11  0.3673E-11
    -42.529  0.1821E-01  0.1821E-01  0.3513E-02  0.3513E-02
    -42.336  0.4155E-01  0.4155E-01  0.1153E-01  0.1153E-01
    -42.143  0.6395E-01  0.6395E-01  0.2387E-01  0.2387E-01
    -41.950  0.6466E-03  0.6466E-03  0.2400E-01  0.2400E-01
    -41.757  0.0000E+00  0.0000E+00  0.2400E-01  0.2400E-01
    -41.565  0.0000E+00  0.0000E+00  0.2400E-01  0.2400E-01
    -41.372  0.0000E+00  0.0000E+00  0.2400E-01  0.2400E-01
    -41.179  0.0000E+00  0.0000E+00  0.2400E-01  0.2400E-01
    -40.986  0.0000E+00  0.0000E+00  0.2400E-01  0.2400E-01
    -40.793  0.0000E+00  0.0000E+00  0.2400E-01  0.2400E-01
    -40.600  0.0000E+00  0.0000E+00  0.2400E-01  0.2400E-01
    -40.407  0.0000E+00  0.0000E+00  0.2400E-01  0.2400E-01
    -40.214  0.0000E+00  0.0000E+00  0.2400E-01  0.2400E-01
    -40.021  0.0000E+00  0.0000E+00  0.2400E-01  0.2400E-01
    -39.828  0.0000E+00  0.0000E+00  0.2400E-01  0.2400E-01
    -39.635  0.0000E+00  0.0000E+00  0.2400E-01  0.2400E-01
    -39.443  0.0000E+00  0.0000E+00  0.2400E-01  0.2400E-01
    -39.250  0.0000E+00  0.0000E+00  0.2400E-01  0.2400E-01
    -39.057  0.0000E+00  0.0000E+00  0.2400E-01  0.2400E-01
    -38.864  0.0000E+00  0.0000E+00  0.2400E-01  0.2400E-01
    -38.671  0.0000E+00  0.0000E+00  0.2400E-01  0.2400E-01
    -38.478  0.0000E+00  0.0000E+00  0.2400E-01  0.2400E-01
    -38.285  0.0000E+00  0.0000E+00  0.2400E-01  0.2400E-01
    -38.092  0.0000E+00  0.0000E+00  0.2400E-01  0.2400E-01
    -37.899  0.0000E+00  0.0000E+00  0.2400E-01  0.2400E-01
    -37.706  0.0000E+00  0.0000E+00  0.2400E-01  0.2400E-01
    -37.514  0.0000E+00  0.0000E+00  0.2400E-01  0.2400E-01
    -37.321  0.0000E+00  0.0000E+00  0.2400E-01  0.2400E-01
    -37.128  0.0000E+00  0.0000E+00  0.2400E-01  0.2400E-01
    -36.935  0.0000E+00  0.0000E+00  0.2400E-01  0.2400E-01
    -36.742  0.0000E+00  0.0000E+00  0.2400E-01  0.2400E-01
    -36.549  0.0000E+00  0.0000E+00  0.2400E-01  0.2400E-01
    -36.356  0.0000E+00  0.0000E+00  0.2400E-01  0.2400E-01
    -36.163  0.0000E+00  0.0000E+00  0.2400E-01  0.2400E-01
    -35.970  0.0000E+00  0.0000E+00  0.2400E-01  0.2400E-01
    -35.777  0.0000E+00  0.0000E+00  0.2400E-01  0.2400E-01
    -35.584  0.0000E+00  0.0000E+00  0.2400E-01  0.2400E-01
    -35.392  0.0000E+00  0.0000E+00  0.2400E-01  0.2400E-01
    -35.199  0.0000E+00  0.0000E+00  0.2400E-01  0.2400E-01
    -35.006  0.0000E+00  0.0000E+00  0.2400E-01  0.2400E-01
    -34.813  0.0000E+00  0.0000E+00  0.2400E-01  0.2400E-01
    -34.620  0.0000E+00  0.0000E+00  0.2400E-01  0.2400E-01
    -34.427  0.0000E+00  0.0000E+00  0.2400E-01  0.2400E-01
    -34.234  0.0000E+00  0.0000E+00  0.2400E-01  0.2400E-01
    -34.041  0.0000E+00  0.0000E+00  0.2400E-01  0.2400E-01
    -33.848  0.0000E+00  0.0000E+00  0.2400E-01  0.2400E-01
    -33.655  0.0000E+00  0.0000E+00  0.2400E-01  0.2400E-01
    -33.463  0.0000E+00  0.0000E+00  0.2400E-01  0.2400E-01
    -33.270  0.0000E+00  0.0000E+00  0.2400E-01  0.2400E-01
    -33.077  0.0000E+00  0.0000E+00  0.2400E-01  0.2400E-01
    -32.884  0.0000E+00  0.0000E+00  0.2400E-01  0.2400E-01
    -32.691  0.0000E+00  0.0000E+00  0.2400E-01  0.2400E-01
    -32.498  0.0000E+00  0.0000E+00  0.2400E-01  0.2400E-01
    -32.305  0.0000E+00  0.0000E+00  0.2400E-01  0.2400E-01
    -32.112  0.0000E+00  0.0000E+00  0.2400E-01  0.2400E-01
    -31.919  0.0000E+00  0.0000E+00  0.2400E-01  0.2400E-01
    -31.726  0.0000E+00  0.0000E+00  0.2400E-01  0.2400E-01
    -31.533  0.0000E+00  0.0000E+00  0.2400E-01  0.2400E-01
    -31.341  0.0000E+00  0.0000E+00  0.2400E-01  0.2400E-01
    -31.148  0.0000E+00  0.0000E+00  0.2400E-01  0.2400E-01
    -30.955  0.0000E+00  0.0000E+00  0.2400E-01  0.2400E-01
    -30.762  0.0000E+00  0.0000E+00  0.2400E-01  0.2400E-01
    -30.569  0.0000E+00  0.0000E+00  0.2400E-01  0.2400E-01
    -30.376  0.0000E+00  0.0000E+00  0.2400E-01  0.2400E-01
    -30.183  0.0000E+00  0.0000E+00  0.2400E-01  0.2400E-01
    -29.990  0.0000E+00  0.0000E+00  0.2400E-01  0.2400E-01
    -29.797  0.0000E+00  0.0000E+00  0.2400E-01  0.2400E-01
    -29.604  0.0000E+00  0.0000E+00  0.2400E-01  0.2400E-01
    -29.412  0.0000E+00  0.0000E+00  0.2400E-01  0.2400E-01
    -29.219  0.0000E+00  0.0000E+00  0.2400E-01  0.2400E-01
    -29.026  0.0000E+00  0.0000E+00  0.2400E-01  0.2400E-01
    -28.833  0.0000E+00  0.0000E+00  0.2400E-01  0.2400E-01
    -28.640  0.0000E+00  0.0000E+00  0.2400E-01  0.2400E-01
    -28.447  0.0000E+00  0.0000E+00  0.2400E-01  0.2400E-01
    -28.254  0.0000E+00  0.0000E+00  0.2400E-01  0.2400E-01
    -28.061  0.0000E+00  0.0000E+00  0.2400E-01  0.2400E-01
    -27.868  0.0000E+00  0.0000E+00  0.2400E-01  0.2400E-01
    -27.675  0.0000E+00  0.0000E+00  0.2400E-01  0.2400E-01
    -27.482  0.0000E+00  0.0000E+00  0.2400E-01  0.2400E-01
    -27.290  0.0000E+00  0.0000E+00  0.2400E-01  0.2400E-01
    -27.097  0.0000E+00  0.0000E+00  0.2400E-01  0.2400E-01
    -26.904  0.0000E+00  0.0000E+00  0.2400E-01  0.2400E-01
    -26.711  0.0000E+00  0.0000E+00  0.2400E-01  0.2400E-01
    -26.518  0.0000E+00  0.0000E+00  0.2400E-01  0.2400E-01
    -26.325  0.0000E+00  0.0000E+00  0.2400E-01  0.2400E-01
    -26.132  0.0000E+00  0.0000E+00  0.2400E-01  0.2400E-01
    -25.939  0.0000E+00  0.0000E+00  0.2400E-01  0.2400E-01
    -25.746  0.0000E+00  0.0000E+00  0.2400E-01  0.2400E-01
    -25.553  0.0000E+00  0.0000E+00  0.2400E-01  0.2400E-01
    -25.361  0.0000E+00  0.0000E+00  0.2400E-01  0.2400E-01
    -25.168  0.0000E+00  0.0000E+00  0.2400E-01  0.2400E-01
    -24.975  0.0000E+00  0.0000E+00  0.2400E-01  0.2400E-01
    -24.782  0.0000E+00  0.0000E+00  0.2400E-01  0.2400E-01
    -24.589  0.0000E+00  0.0000E+00  0.2400E-01  0.2400E-01
    -24.396  0.0000E+00  0.0000E+00  0.2400E-01  0.2400E-01
    -24.203  0.0000E+00  0.0000E+00  0.2400E-01  0.2400E-01
    -24.010  0.0000E+00  0.0000E+00  0.2400E-01  0.2400E-01
    -23.817  0.0000E+00  0.0000E+00  0.2400E-01  0.2400E-01
    -23.624  0.0000E+00  0.0000E+00  0.2400E-01  0.2400E-01
    -23.431  0.0000E+00  0.0000E+00  0.2400E-01  0.2400E-01
    -23.239  0.0000E+00  0.0000E+00  0.2400E-01  0.2400E-01
    -23.046  0.0000E+00  0.0000E+00  0.2400E-01  0.2400E-01
    -22.853  0.0000E+00  0.0000E+00  0.2400E-01  0.2400E-01
    -22.660  0.0000E+00  0.0000E+00  0.2400E-01  0.2400E-01
    -22.467  0.0000E+00  0.0000E+00  0.2400E-01  0.2400E-01
    -22.274  0.0000E+00  0.0000E+00  0.2400E-01  0.2400E-01
    -22.081  0.0000E+00  0.0000E+00  0.2400E-01  0.2400E-01
    -21.888  0.0000E+00  0.0000E+00  0.2400E-01  0.2400E-01
    -21.695  0.0000E+00  0.0000E+00  0.2400E-01  0.2400E-01
    -21.502  0.0000E+00  0.0000E+00  0.2400E-01  0.2400E-01
    -21.309  0.0000E+00  0.0000E+00  0.2400E-01  0.2400E-01
    -21.117  0.0000E+00  0.0000E+00  0.2400E-01  0.2400E-01
    -20.924  0.0000E+00  0.0000E+00  0.2400E-01  0.2400E-01
    -20.731  0.0000E+00  0.0000E+00  0.2400E-01  0.2400E-01
    -20.538  0.0000E+00  0.0000E+00  0.2400E-01  0.2400E-01
    -20.345  0.0000E+00  0.0000E+00  0.2400E-01  0.2400E-01
    -20.152  0.0000E+00  0.0000E+00  0.2400E-01  0.2400E-01
    -19.959  0.0000E+00  0.0000E+00  0.2400E-01  0.2400E-01
    -19.766  0.0000E+00  0.0000E+00  0.2400E-01  0.2400E-01
    -19.573  0.0000E+00  0.0000E+00  0.2400E-01  0.2400E-01
    -19.380  0.0000E+00  0.0000E+00  0.2400E-01  0.2400E-01
    -19.188  0.0000E+00  0.0000E+00  0.2400E-01  0.2400E-01
    -18.995  0.0000E+00  0.0000E+00  0.2400E-01  0.2400E-01
    -18.802  0.0000E+00  0.0000E+00  0.2400E-01  0.2400E-01
    -18.609  0.0000E+00  0.0000E+00  0.2400E-01  0.2400E-01
    -18.416  0.0000E+00  0.0000E+00  0.2400E-01  0.2400E-01
    -18.223  0.0000E+00  0.0000E+00  0.2400E-01  0.2400E-01
    -18.030  0.0000E+00  0.0000E+00  0.2400E-01  0.2400E-01
    -17.837  0.0000E+00  0.0000E+00  0.2400E-01  0.2400E-01
    -17.644  0.0000E+00  0.0000E+00  0.2400E-01  0.2400E-01
    -17.451  0.0000E+00  0.0000E+00  0.2400E-01  0.2400E-01
    -17.258  0.0000E+00  0.0000E+00  0.2400E-01  0.2400E-01
    -17.066  0.0000E+00  0.0000E+00  0.2400E-01  0.2400E-01
    -16.873  0.0000E+00  0.0000E+00  0.2400E-01  0.2400E-01
    -16.680  0.0000E+00  0.0000E+00  0.2400E-01  0.2400E-01
    -16.487  0.0000E+00  0.0000E+00  0.2400E-01  0.2400E-01
    -16.294  0.0000E+00  0.0000E+00  0.2400E-01  0.2400E-01
    -16.101  0.0000E+00  0.0000E+00  0.2400E-01  0.2400E-01
    -15.908  0.0000E+00  0.0000E+00  0.2400E-01  0.2400E-01
    -15.715  0.0000E+00  0.0000E+00  0.2400E-01  0.2400E-01
    -15.522  0.0000E+00  0.0000E+00  0.2400E-01  0.2400E-01
    -15.329  0.0000E+00  0.0000E+00  0.2400E-01  0.2400E-01
    -15.137  0.0000E+00  0.0000E+00  0.2400E-01  0.2400E-01
    -14.944  0.0000E+00  0.0000E+00  0.2400E-01  0.2400E-01
    -14.751  0.0000E+00  0.0000E+00  0.2400E-01  0.2400E-01
    -14.558  0.0000E+00  0.0000E+00  0.2400E-01  0.2400E-01
    -14.365  0.0000E+00  0.0000E+00  0.2400E-01  0.2400E-01
    -14.172  0.0000E+00  0.0000E+00  0.2400E-01  0.2400E-01
    -13.979  0.0000E+00  0.0000E+00  0.2400E-01  0.2400E-01
    -13.786  0.0000E+00  0.0000E+00  0.2400E-01  0.2400E-01
    -13.593  0.0000E+00  0.0000E+00  0.2400E-01  0.2400E-01
    -13.400  0.0000E+00  0.0000E+00  0.2400E-01  0.2400E-01
    -13.207  0.0000E+00  0.0000E+00  0.2400E-01  0.2400E-01
    -13.015  0.3118E-02  0.3118E-02  0.2460E-01  0.2460E-01
    -12.822  0.1762E-01  0.1762E-01  0.2800E-01  0.2800E-01
    -12.629  0.7658E-02  0.7658E-02  0.2948E-01  0.2948E-01
    -12.436  0.1308E-01  0.1308E-01  0.3200E-01  0.3200E-01
    -12.243  0.0000E+00  0.0000E+00  0.3200E-01  0.3200E-01
    -12.050  0.0000E+00  0.0000E+00  0.3200E-01  0.3200E-01
    -11.857  0.0000E+00  0.0000E+00  0.3200E-01  0.3200E-01
    -11.664  0.0000E+00  0.0000E+00  0.3200E-01  0.3200E-01
    -11.471  0.0000E+00  0.0000E+00  0.3200E-01  0.3200E-01
    -11.278  0.0000E+00  0.0000E+00  0.3200E-01  0.3200E-01
    -11.086  0.0000E+00  0.0000E+00  0.3200E-01  0.3200E-01
    -10.893  0.0000E+00  0.0000E+00  0.3200E-01  0.3200E-01
    -10.700  0.0000E+00  0.0000E+00  0.3200E-01  0.3200E-01
    -10.507  0.0000E+00  0.0000E+00  0.3200E-01  0.3200E-01
    -10.314  0.1964E-05  0.1964E-05  0.3200E-01  0.3200E-01
    -10.121  0.1571E-01  0.1571E-01  0.3503E-01  0.3503E-01
     -9.928  0.2432E-01  0.2432E-01  0.3972E-01  0.3972E-01
     -9.735  0.2213E-01  0.2213E-01  0.4399E-01  0.4399E-01
     -9.542  0.0000E+00  0.0000E+00  0.4400E-01  0.4400E-01
     -9.349  0.0000E+00  0.0000E+00  0.4400E-01  0.4400E-01
     -9.156  0.0000E+00  0.0000E+00  0.4400E-01  0.4400E-01
     -8.964  0.0000E+00  0.0000E+00  0.4400E-01  0.4400E-01
     -8.771  0.0000E+00  0.0000E+00  0.4400E-01  0.4400E-01
     -8.578  0.0000E+00  0.0000E+00  0.4400E-01  0.4400E-01
     -8.385  0.3261E-03  0.3261E-03  0.4406E-01  0.4406E-01
     -8.192  0.2005E-01  0.2005E-01  0.4793E-01  0.4793E-01
     -7.999  0.3025E-03  0.3025E-03  0.4800E-01  0.4800E-01
     -7.806  0.0000E+00  0.0000E+00  0.4800E-01  0.4800E-01
     -7.613  0.0000E+00  0.0000E+00  0.4800E-01  0.4800E-01
     -7.420  0.0000E+00  0.0000E+00  0.4800E-01  0.4800E-01
     -7.227  0.0000E+00  0.0000E+00  0.4800E-01  0.4800E-01
     -7.035  0.0000E+00  0.0000E+00  0.4800E-01  0.4800E-01
     -6.842  0.0000E+00  0.0000E+00  0.4800E-01  0.4800E-01
     -6.649  0.0000E+00  0.0000E+00  0.4800E-01  0.4800E-01
     -6.456  0.0000E+00  0.0000E+00  0.4800E-01  0.4800E-01
     -6.263  0.0000E+00  0.0000E+00  0.4800E-01  0.4800E-01
     -6.070  0.3718E-02  0.3718E-02  0.4872E-01  0.4872E-01
     -5.877  0.1466E-02  0.1466E-02  0.4900E-01  0.4900E-01
     -5.684  0.1806E-02  0.1806E-02  0.4935E-01  0.4935E-01
     -5.491  0.1373E-01  0.1373E-01  0.5200E-01  0.5200E-01
     -5.298  0.0000E+00  0.0000E+00  0.5200E-01  0.5200E-01
     -5.105  0.0000E+00  0.0000E+00  0.5200E-01  0.5200E-01
     -4.913  0.0000E+00  0.0000E+00  0.5200E-01  0.5200E-01
     -4.720  0.0000E+00  0.0000E+00  0.5200E-01  0.5200E-01
     -4.527  0.0000E+00  0.0000E+00  0.5200E-01  0.5200E-01
     -4.334  0.0000E+00  0.0000E+00  0.5200E-01  0.5200E-01
     -4.141  0.0000E+00  0.0000E+00  0.5200E-01  0.5200E-01
     -3.948  0.0000E+00  0.0000E+00  0.5200E-01  0.5200E-01
     -3.755  0.0000E+00  0.0000E+00  0.5200E-01  0.5200E-01
     -3.562  0.0000E+00  0.0000E+00  0.5200E-01  0.5200E-01
     -3.369  0.0000E+00  0.0000E+00  0.5200E-01  0.5200E-01
     -3.176  0.4910E-02  0.4910E-02  0.5295E-01  0.5295E-01
     -2.983  0.1064E-01  0.1064E-01  0.5500E-01  0.5500E-01
     -2.791  0.4172E-02  0.4172E-02  0.5580E-01  0.5580E-01
     -2.598  0.1116E-01  0.1116E-01  0.5796E-01  0.5796E-01
     -2.405  0.1271E-01  0.1271E-01  0.6041E-01  0.6041E-01
     -2.212  0.1708E-01  0.1708E-01  0.6371E-01  0.6371E-01
     -2.019  0.1480E-02  0.1480E-02  0.6400E-01  0.6400E-01
     -1.826  0.0000E+00  0.0000E+00  0.6400E-01  0.6400E-01
     -1.633  0.1397E-05  0.1397E-05  0.6400E-01  0.6400E-01
     -1.440  0.1764E-01  0.1764E-01  0.6740E-01  0.6740E-01
     -1.247  0.1894E-01  0.1894E-01  0.7106E-01  0.7106E-01
     -1.054  0.2101E-01  0.2101E-01  0.7511E-01  0.7511E-01
     -0.862  0.4604E-02  0.4604E-02  0.7600E-01  0.7600E-01
     -0.669  0.2731E-10  0.2730E-10  0.7600E-01  0.7600E-01
     -0.476  0.1042E-01  0.1042E-01  0.7801E-01  0.7801E-01
     -0.283  0.1098E-01  0.1098E-01  0.8013E-01  0.8013E-01
     -0.090  0.1223E-01  0.1223E-01  0.8249E-01  0.8249E-01
      0.103  0.2770E-01  0.2770E-01  0.8783E-01  0.8783E-01
      0.296  0.2485E-01  0.2485E-01  0.9263E-01  0.9263E-01
      0.489  0.1687E-01  0.1687E-01  0.9589E-01  0.9589E-01
      0.682  0.5809E-03  0.5809E-03  0.9600E-01  0.9600E-01
      0.875  0.1239E-01  0.1239E-01  0.9840E-01  0.9840E-01
      1.068  0.2125E-01  0.2125E-01  0.1025E+00  0.1025E+00
      1.260  0.2164E-01  0.2164E-01  0.1067E+00  0.1067E+00
      1.453  0.2696E-01  0.2696E-01  0.1119E+00  0.1119E+00
      1.646  0.2842E-01  0.2842E-01  0.1174E+00  0.1174E+00
      1.839  0.1357E-01  0.1357E-01  0.1200E+00  0.1200E+00
      2.032  0.6314E-04  0.6314E-04  0.1200E+00  0.1200E+00
      2.225  0.0000E+00  0.0000E+00  0.1200E+00  0.1200E+00
      2.418  0.0000E+00  0.0000E+00  0.1200E+00  0.1200E+00
      2.611  0.0000E+00  0.0000E+00  0.1200E+00  0.1200E+00
      2.804  0.0000E+00  0.0000E+00  0.1200E+00  0.1200E+00
      2.997  0.0000E+00  0.0000E+00  0.1200E+00  0.1200E+00
      3.189  0.0000E+00  0.0000E+00  0.1200E+00  0.1200E+00
      3.382  0.0000E+00  0.0000E+00  0.1200E+00  0.1200E+00
      3.575  0.0000E+00  0.0000E+00  0.1200E+00  0.1200E+00
      3.768  0.0000E+00  0.0000E+00  0.1200E+00  0.1200E+00
      3.961  0.0000E+00  0.0000E+00  0.1200E+00  0.1200E+00
      4.154  0.0000E+00  0.0000E+00  0.1200E+00  0.1200E+00
      4.347  0.7262E-12  0.7262E-12  0.1200E+00  0.1200E+00
      4.540  0.5165E-02  0.5165E-02  0.1210E+00  0.1210E+00
      4.733  0.0000E+00  0.0000E+00  0.1210E+00  0.1210E+00
      4.926  0.0000E+00  0.0000E+00  0.1210E+00  0.1210E+00
      5.119  0.5374E-15  0.5374E-15  0.1210E+00  0.1210E+00
      5.311  0.4864E-02  0.4864E-02  0.1219E+00  0.1219E+00
      5.504  0.1069E-01  0.1069E-01  0.1240E+00  0.1240E+00
      5.697  0.0000E+00  0.0000E+00  0.1240E+00  0.1240E+00
      5.890  0.7482E-04  0.7483E-04  0.1240E+00  0.1240E+00
      6.083  0.1283E-01  0.1283E-01  0.1265E+00  0.1265E+00
      6.276  0.1503E-01  0.1503E-01  0.1294E+00  0.1294E+00
      6.469  0.3791E-02  0.3791E-02  0.1301E+00  0.1301E+00
      6.662  0.1274E-01  0.1274E-01  0.1326E+00  0.1326E+00
      6.855  0.6834E-02  0.6834E-02  0.1339E+00  0.1339E+00
      7.048  0.1087E-01  0.1087E-01  0.1360E+00  0.1360E+00
      7.240  0.5061E-02  0.5061E-02  0.1370E+00  0.1370E+00
      7.433  0.4344E-02  0.4344E-02  0.1378E+00  0.1378E+00
      7.626  0.1028E-01  0.1028E-01  0.1398E+00  0.1398E+00
      7.819  0.1211E-01  0.1211E-01  0.1421E+00  0.1421E+00
      8.012  0.1020E-01  0.1020E-01  0.1441E+00  0.1441E+00
      8.205  0.1441E-01  0.1441E-01  0.1469E+00  0.1469E+00
      8.398  0.1489E-01  0.1489E-01  0.1498E+00  0.1498E+00
      8.591  0.1327E-01  0.1327E-01  0.1523E+00  0.1523E+00
      8.784  0.1570E-01  0.1570E-01  0.1553E+00  0.1553E+00
      8.977  0.1671E-01  0.1671E-01  0.1586E+00  0.1586E+00
      9.170  0.2104E-01  0.2104E-01  0.1626E+00  0.1626E+00
      9.362  0.1723E-01  0.1722E-01  0.1660E+00  0.1660E+00
      9.555  0.1770E-01  0.1771E-01  0.1694E+00  0.1694E+00
      9.748  0.1529E-01  0.1495E-01  0.1723E+00  0.1723E+00
      9.941  0.1594E-01  0.1721E-01  0.1754E+00  0.1756E+00
     10.134  0.3109E-02  0.2172E-02  0.1760E+00  0.1760E+00
     10.327  0.0000E+00  0.0000E+00  0.1760E+00  0.1760E+00
     10.520  0.0000E+00  0.0000E+00  0.1760E+00  0.1760E+00
     10.713  0.0000E+00  0.0000E+00  0.1760E+00  0.1760E+00
     10.906  0.0000E+00  0.0000E+00  0.1760E+00  0.1760E+00
     11.099  0.0000E+00  0.0000E+00  0.1760E+00  0.1760E+00
     11.291  0.0000E+00  0.0000E+00  0.1760E+00  0.1760E+00
     11.484  0.0000E+00  0.0000E+00  0.1760E+00  0.1760E+00
     11.677  0.0000E+00  0.0000E+00  0.1760E+00  0.1760E+00
     11.870  0.0000E+00  0.0000E+00  0.1760E+00  0.1760E+00
     12.063  0.0000E+00  0.0000E+00  0.1760E+00  0.1760E+00
     12.256  0.0000E+00  0.0000E+00  0.1760E+00  0.1760E+00
     12.449  0.0000E+00  0.0000E+00  0.1760E+00  0.1760E+00
     12.642  0.0000E+00  0.0000E+00  0.1760E+00  0.1760E+00
