 vasp.6.4.1 05Apr23 (build Jun 07 2023 15:38:11) complex                        
  
 executed on             LinuxIFC date 2023.10.16  22:20:16
 running  128 mpi-ranks, with    1 threads/rank, on    1 nodes
 distrk:  each k-point on  128 cores,    1 groups
 distr:  one band on NCORE=  32 cores,    4 groups


--------------------------------------------------------------------------------------------------------


 INCAR:
   GGA = PE
   PREC = Accu
   EDIFF = 1.e-6
   EDIFFG = -1.e-3
   ENCUT = 520.
   NELM = 100
   NELMDL = -10
   LASPH = .TRUE.
   LREAL = Auto
   LMAXMIX = 4
   ISPIN = 2
   LDIAG = .TRUE.
   LPLANE = .TRUE.
   IVDW = 12
   SIGMA = 0.03
   ISMEAR = 0
   NSW = 1000    number of steps for IOM
   IBRION = 2    ionic relax: 0-MD 1-quasi-New 2-CG
   ISIF = 2    ionic relaxation + stress tensor calcn.
   LCHARG = .FALSE.
   LWAVE = .FALSE.
   ALGO = F
   KPAR = 1
   NPAR = 4
   POTIM = 0.2

 POTCAR:    PAW_PBE Li_sv_GW 25Mar2010            
 POTCAR:    PAW_PBE P_GW 19Mar2012                
 POTCAR:    PAW_PBE S_GW 19Mar2012                
 POTCAR:    PAW_PBE Cl_GW 19Mar2012               
 -----------------------------------------------------------------------------
|                                                                             |
|           W    W    AA    RRRRR   N    N  II  N    N   GGGG   !!!           |
|           W    W   A  A   R    R  NN   N  II  NN   N  G    G  !!!           |
|           W    W  A    A  R    R  N N  N  II  N N  N  G       !!!           |
|           W WW W  AAAAAA  RRRRR   N  N N  II  N  N N  G  GGG   !            |
|           WW  WW  A    A  R   R   N   NN  II  N   NN  G    G                |
|           W    W  A    A  R    R  N    N  II  N    N   GGGG   !!!           |
|                                                                             |
|     You use a magnetic or noncollinear calculation, but did not specify     |
|     the initial magnetic moment with the MAGMOM tag. Note that a            |
|     default of 1 will be used for all atoms. This ferromagnetic setup       |
|     may break the symmetry of the crystal, in particular it may rule        |
|     out finding an antiferromagnetic solution. Thence, we recommend         |
|     setting the initial magnetic moment manually or verifying carefully     |
|     that this magnetic setup is desired.                                    |
|                                                                             |
 -----------------------------------------------------------------------------

 POTCAR:    PAW_PBE Li_sv_GW 25Mar2010            
   SHA256 =  24a6ace15a582615486b36ce4dc781b048409f4015b7684ed1273ae395fa2fdc Li_sv_GW/POTCAR       
   COPYR  = (c) Copyright 25Mar2010 Georg Kresse                                                    
   COPYR  = This file is part of the software VASP. Any use, copying, and all other rights are regul
   COPYR  = If you do not have a valid VASP license, you may not use, copy or distribute this file. 
   VRHFIN =Li: 1s2s                                                                                 
   LEXCH  = PE                                                                                      
   EATOM  =   200.9989 eV,   14.7730 Ry                                                             
                                                                                                    
   TITEL  = PAW_PBE Li_sv_GW 25Mar2010                                                              
   LULTRA =        F    use ultrasoft PP ?                                                          
   IUNSCR =        0    unscreen: 0-lin 1-nonlin 2-no                                               
   RPACOR =    0.000    partial core radius                                                         
   POMASS =    7.010; ZVAL   =    3.000    mass and valenz                                          
   RCORE  =    1.500    outmost cutoff radius                                                       
   RWIGS  =    1.600; RWIGS  =    0.847    wigner-seitz radius (au A)                               
   ENMAX  =  433.699; ENMIN  =  325.274 eV                                                          
   RCLOC  =    1.003    cutoff for local pot                                                        
   LCOR   =        T    correct aug charges                                                         
   LPAW   =        T    paw PP                                                                      
   EAUG   = 1041.699                                                                                
   RMAX   =    1.536    core radius for proj-oper                                                   
   RAUG   =    1.300    factor for augmentation sphere                                              
   RDEP   =    1.520    radius for radial grids                                                     
   RDEPT  =    1.300    core radius for aug-charge                                                  
                                                                                                    
   Atomic configuration                                                                             
    4 entries                                                                                       
     n  l   j            E        occ.                                                              
     1  0  0.50       -53.3604   2.0000                                                             
     1  0  0.50       -52.0001   0.0000                                                             
     2  1  0.50        -1.5636   1.0000                                                             
     3  2  1.50        -1.3606   0.0000                                                             
   Description                                                                                      
     l       E           TYP  RCUT    TYP  RCUT                                                     
     0    -53.3603633     23  1.200                                                                 
     0    -52.0001064     23  1.200                                                                 
     0    176.8757380     23  1.300                                                                 
     1     -1.5635925     23  1.500                                                                 
     1    108.8466080     23  1.500                                                                 
     2     81.6349560     23  1.500                                                                 
  local pseudopotential read in
  kinetic energy density of atom read in
  atomic valenz-charges read in
  non local Contribution for L=           0  read in
    real space projection operators read in
  non local Contribution for L=           0  read in
    real space projection operators read in
  non local Contribution for L=           0  read in
    real space projection operators read in
  non local Contribution for L=           1  read in
    real space projection operators read in
  non local Contribution for L=           1  read in
    real space projection operators read in
  non local Contribution for L=           2  read in
    real space projection operators read in
    PAW grid and wavefunctions read in
 
   number of l-projection  operators is LMAX  =           6
   number of lm-projection operators is LMMAX =          14
 
 POTCAR:    PAW_PBE P_GW 19Mar2012                
   SHA256 =  715c28f2291d37b61637ce89646c59f66f71c8b8d8bfba631e5feb9f7b42defe P_GW/POTCAR           
   COPYR  = (c) Copyright 19Mar2012 Georg Kresse                                                    
   COPYR  = This file is part of the software VASP. Any use, copying, and all other rights are regul
   COPYR  = If you do not have a valid VASP license, you may not use, copy or distribute this file. 
   VRHFIN =P : s2p3                                                                                 
   LEXCH  = PE                                                                                      
   EATOM  =   176.0430 eV,   12.9388 Ry                                                             
                                                                                                    
   TITEL  = PAW_PBE P_GW 19Mar2012                                                                  
   LULTRA =        F    use ultrasoft PP ?                                                          
   IUNSCR =        1    unscreen: 0-lin 1-nonlin 2-no                                               
   RPACOR =    1.400    partial core radius                                                         
   POMASS =   30.974; ZVAL   =    5.000    mass and valenz                                          
   RCORE  =    2.000    outmost cutoff radius                                                       
   RWIGS  =    1.900; RWIGS  =    1.005    wigner-seitz radius (au A)                               
   ENMAX  =  255.040; ENMIN  =  191.280 eV                                                          
   ICORE  =        3    local potential                                                             
   LCOR   =        T    correct aug charges                                                         
   LPAW   =        T    paw PP                                                                      
   EAUG   =  499.732                                                                                
   DEXC   =    0.000                                                                                
   RMAX   =    2.047    core radius for proj-oper                                                   
   RAUG   =    1.300    factor for augmentation sphere                                              
   RDEP   =    2.059    radius for radial grids                                                     
   RDEPT  =    1.900    core radius for aug-charge                                                  
                                                                                                    
   Atomic configuration                                                                             
    7 entries                                                                                       
     n  l   j            E        occ.                                                              
     1  0  0.50     -2084.0982   2.0000                                                             
     2  0  0.50      -173.9859   2.0000                                                             
     2  1  1.50      -124.4865   6.0000                                                             
     3  0  0.50       -13.9692   2.0000                                                             
     3  1  0.50        -5.5067   3.0000                                                             
     3  2  1.50        -6.8029   0.0000                                                             
     4  3  2.50        -1.3606   0.0000                                                             
   Description                                                                                      
     l       E           TYP  RCUT    TYP  RCUT                                                     
     0    -13.9691528     23  1.900                                                                 
     0    102.0436950     23  1.900                                                                 
     1     -5.5066939     23  1.900                                                                 
     1    102.0436950     23  1.900                                                                 
     2     -8.1634956     23  2.000                                                                 
     2     81.6349560     23  2.000                                                                 
     3     27.2116520     23  2.000                                                                 
  local pseudopotential read in
  partial core-charges read in
  partial kinetic energy density read in
  kinetic energy density of atom read in
  atomic valenz-charges read in
  non local Contribution for L=           0  read in
    real space projection operators read in
  non local Contribution for L=           0  read in
    real space projection operators read in
  non local Contribution for L=           1  read in
    real space projection operators read in
  non local Contribution for L=           1  read in
    real space projection operators read in
  non local Contribution for L=           2  read in
    real space projection operators read in
  non local Contribution for L=           2  read in
    real space projection operators read in
    PAW grid and wavefunctions read in
 
   number of l-projection  operators is LMAX  =           6
   number of lm-projection operators is LMMAX =          18
 
 POTCAR:    PAW_PBE S_GW 19Mar2012                
   SHA256 =  357db9cfb0783579b2eebe03197c2d807131fea8ea663b1fcfb6ce2fa75af011 S_GW/POTCAR           
   COPYR  = (c) Copyright 19Mar2012 Georg Kresse                                                    
   COPYR  = This file is part of the software VASP. Any use, copying, and all other rights are regul
   COPYR  = If you do not have a valid VASP license, you may not use, copy or distribute this file. 
   VRHFIN =S : s2p4                                                                                 
   LEXCH  = PE                                                                                      
   EATOM  =   276.8230 eV,   20.3459 Ry                                                             
                                                                                                    
   TITEL  = PAW_PBE S_GW 19Mar2012                                                                  
   LULTRA =        F    use ultrasoft PP ?                                                          
   IUNSCR =        1    unscreen: 0-lin 1-nonlin 2-no                                               
   RPACOR =    1.400    partial core radius                                                         
   POMASS =   32.066; ZVAL   =    6.000    mass and valenz                                          
   RCORE  =    1.900    outmost cutoff radius                                                       
   RWIGS  =    1.900; RWIGS  =    1.005    wigner-seitz radius (au A)                               
   ENMAX  =  258.689; ENMIN  =  194.016 eV                                                          
   ICORE  =        3    local potential                                                             
   LCOR   =        T    correct aug charges                                                         
   LPAW   =        T    paw PP                                                                      
   EAUG   =  488.319                                                                                
   DEXC   =    0.000                                                                                
   RMAX   =    1.942    core radius for proj-oper                                                   
   RAUG   =    1.300    factor for augmentation sphere                                              
   RDEP   =    1.954    radius for radial grids                                                     
   RDEPT  =    1.900    core radius for aug-charge                                                  
                                                                                                    
   Atomic configuration                                                                             
    7 entries                                                                                       
     n  l   j            E        occ.                                                              
     1  0  0.50     -2405.8406   2.0000                                                             
     2  0  0.50      -211.7007   2.0000                                                             
     2  1  1.50      -156.4958   6.0000                                                             
     3  0  0.50       -17.2562   2.0000                                                             
     3  1  0.50        -7.0085   4.0000                                                             
     3  2  1.50        -8.1635   0.0000                                                             
     4  3  2.50        -1.3606   0.0000                                                             
   Description                                                                                      
     l       E           TYP  RCUT    TYP  RCUT                                                     
     0    -17.2561639     23  1.700                                                                 
     0     88.4378690     23  1.900                                                                 
     1     -7.0085399     23  1.900                                                                 
     1     88.4378690     23  1.900                                                                 
     2    -10.8846608     23  1.900                                                                 
     2     54.4233040     23  1.900                                                                 
     3     27.2116520     23  1.800                                                                 
  local pseudopotential read in
  partial core-charges read in
  partial kinetic energy density read in
  kinetic energy density of atom read in
  atomic valenz-charges read in
  non local Contribution for L=           0  read in
    real space projection operators read in
  non local Contribution for L=           0  read in
    real space projection operators read in
  non local Contribution for L=           1  read in
    real space projection operators read in
  non local Contribution for L=           1  read in
    real space projection operators read in
  non local Contribution for L=           2  read in
    real space projection operators read in
  non local Contribution for L=           2  read in
    real space projection operators read in
    PAW grid and wavefunctions read in
 
   number of l-projection  operators is LMAX  =           6
   number of lm-projection operators is LMMAX =          18
 
 POTCAR:    PAW_PBE Cl_GW 19Mar2012               
   SHA256 =  3ef3b3169d6a9a89979f58b4cf17d927a58518fc660d8883d88cacaee8175441 Cl_GW/POTCAR          
   COPYR  = (c) Copyright 19Mar2012 Georg Kresse                                                    
   COPYR  = This file is part of the software VASP. Any use, copying, and all other rights are regul
   COPYR  = If you do not have a valid VASP license, you may not use, copy or distribute this file. 
   VRHFIN =Cl: s2p5                                                                                 
   LEXCH  = PE                                                                                      
   EATOM  =   409.7259 eV,   30.1140 Ry                                                             
                                                                                                    
   TITEL  = PAW_PBE Cl_GW 19Mar2012                                                                 
   LULTRA =        F    use ultrasoft PP ?                                                          
   IUNSCR =        1    unscreen: 0-lin 1-nonlin 2-no                                               
   RPACOR =    1.400    partial core radius                                                         
   POMASS =   35.453; ZVAL   =    7.000    mass and valenz                                          
   RCORE  =    1.900    outmost cutoff radius                                                       
   RWIGS  =    1.900; RWIGS  =    1.005    wigner-seitz radius (au A)                               
   ENMAX  =  262.472; ENMIN  =  196.854 eV                                                          
   ICORE  =        3    local potential                                                             
   LCOR   =        T    correct aug charges                                                         
   LPAW   =        T    paw PP                                                                      
   EAUG   =  456.703                                                                                
   DEXC   =    0.000                                                                                
   RMAX   =    1.945    core radius for proj-oper                                                   
   RAUG   =    1.300    factor for augmentation sphere                                              
   RDEP   =    2.020    radius for radial grids                                                     
   RDEPT  =    1.900    core radius for aug-charge                                                  
                                                                                                    
   Atomic configuration                                                                             
    7 entries                                                                                       
     n  l   j            E        occ.                                                              
     1  0  0.50     -2751.1850   2.0000                                                             
     2  0  0.50      -252.6861   2.0000                                                             
     2  1  1.50      -191.6157   6.0000                                                             
     3  0  0.50       -20.6916   2.0000                                                             
     3  1  0.50        -8.5949   5.0000                                                             
     3  2  1.50        -9.5241   0.0000                                                             
     4  3  2.50        -9.5241   0.0000                                                             
   Description                                                                                      
     l       E           TYP  RCUT    TYP  RCUT                                                     
     0    -20.6915657     23  1.700                                                                 
     0     95.2407820     23  1.800                                                                 
     1     -8.5948577     23  1.900                                                                 
     1     95.2407820     23  1.900                                                                 
     2    -10.8846608     23  1.900                                                                 
     2     54.4233040     23  1.900                                                                 
     3     27.2116520     23  1.900                                                                 
  local pseudopotential read in
  partial core-charges read in
  partial kinetic energy density read in
  kinetic energy density of atom read in
  atomic valenz-charges read in
  non local Contribution for L=           0  read in
    real space projection operators read in
  non local Contribution for L=           0  read in
    real space projection operators read in
  non local Contribution for L=           1  read in
    real space projection operators read in
  non local Contribution for L=           1  read in
    real space projection operators read in
  non local Contribution for L=           2  read in
    real space projection operators read in
  non local Contribution for L=           2  read in
    real space projection operators read in
    PAW grid and wavefunctions read in
 
   number of l-projection  operators is LMAX  =           6
   number of lm-projection operators is LMMAX =          18
 
 Optimization of the real space projectors (new method)

 maximal supplied QI-value         = 25.13
 optimisation between [QCUT,QGAM] = [ 11.56, 23.12] = [ 37.43,149.72] Ry 
 Optimized for a Real-space Cutoff    1.28 Angstroem

   l    n(q)    QCUT    max X(q) W(low)/X(q) W(high)/X(q)  e(spline) 
   0      9    11.561    87.733    0.11E-03    0.32E-04    0.56E-06
   0      9    11.561    82.800    0.11E-03    0.35E-04    0.56E-06
   0      9    11.561     2.509    0.22E-03    0.42E-04    0.79E-06
   1      8    11.561    12.580    0.94E-04    0.26E-03    0.21E-06
   1      8    11.561     1.319    0.33E-04    0.15E-03    0.19E-06
   2      8    11.561     1.993    0.36E-04    0.89E-04    0.26E-06
 Optimization of the real space projectors (new method)

 maximal supplied QI-value         = 18.90
 optimisation between [QCUT,QGAM] = [ 11.53, 23.24] = [ 37.21,151.29] Ry 
 Optimized for a Real-space Cutoff    1.21 Angstroem

   l    n(q)    QCUT    max X(q) W(low)/X(q) W(high)/X(q)  e(spline) 
   0      8    11.527     8.355    0.73E-04    0.70E-04    0.26E-07
   0      8    11.527     1.401    0.17E-03    0.17E-03    0.63E-07
   1      8    11.527     4.747    0.13E-03    0.17E-03    0.11E-06
   1      8    11.527     2.025    0.16E-03    0.18E-03    0.12E-06
   2      7    11.527     3.169    0.51E-04    0.25E-03    0.60E-07
   2      7    11.527     3.441    0.82E-04    0.22E-03    0.14E-06
 Optimization of the real space projectors (new method)

 maximal supplied QI-value         = 19.84
 optimisation between [QCUT,QGAM] = [ 11.51, 23.22] = [ 37.09,150.92] Ry 
 Optimized for a Real-space Cutoff    1.49 Angstroem

   l    n(q)    QCUT    max X(q) W(low)/X(q) W(high)/X(q)  e(spline) 
   0     10    11.508     7.541    0.34E-04    0.13E-04    0.69E-07
   0     10    11.508     1.809    0.49E-04    0.27E-04    0.14E-06
   1     10    11.508     4.107    0.27E-05    0.41E-05    0.14E-06
   1     10    11.508     2.196    0.26E-05    0.25E-05    0.22E-06
   2      9    11.508     4.265    0.18E-03    0.11E-03    0.81E-06
   2      9    11.508     1.925    0.97E-04    0.76E-04    0.47E-06
 Optimization of the real space projectors (new method)

 maximal supplied QI-value         = 19.84
 optimisation between [QCUT,QGAM] = [ 11.51, 23.22] = [ 37.09,150.92] Ry 
 Optimized for a Real-space Cutoff    1.21 Angstroem

   l    n(q)    QCUT    max X(q) W(low)/X(q) W(high)/X(q)  e(spline) 
   0      8    11.508     6.761    0.57E-04    0.57E-04    0.35E-07
   0      8    11.508     1.642    0.14E-03    0.14E-03    0.91E-07
   1      8    11.508     3.519    0.20E-04    0.72E-04    0.47E-07
   1      8    11.508     2.150    0.27E-04    0.11E-03    0.89E-07
   2      7    11.508     2.976    0.19E-03    0.33E-03    0.16E-06
   2      7    11.508     1.494    0.14E-03    0.29E-03    0.14E-06
  PAW_PBE Li_sv_GW 25Mar2010            :
 energy of atom  1       EATOM= -200.9989
 kinetic energy error for atom=    0.0127 (will be added to EATOM!!)
  PAW_PBE P_GW 19Mar2012                :
 energy of atom  2       EATOM= -176.0430
 kinetic energy error for atom=    0.0011 (will be added to EATOM!!)
  PAW_PBE S_GW 19Mar2012                :
 energy of atom  3       EATOM= -276.8230
 kinetic energy error for atom=    0.0024 (will be added to EATOM!!)
  PAW_PBE Cl_GW 19Mar2012               :
 energy of atom  4       EATOM= -409.7259
 kinetic energy error for atom=    0.0030 (will be added to EATOM!!)
 
 
 POSCAR: Li24 P4 S20 Cl4
  positions in direct lattice
  velocities in cartesian coordinates
 exchange correlation table for  LEXCH =        8
   RHO(1)=    0.500       N(1)  =     2000
   RHO(2)=  100.500       N(2)  =     4000

 VTST: version 4.1, (05/19/21)

 CHAIN: initializing optimizer
 
 OPT: Using VASP Conjugate-Gradient optimizer
 CHAIN: Read ICHAIN            0
 
 POSCAR: Li24 P4 S20 Cl4
  positions in direct lattice
  velocities in cartesian coordinates
 


--------------------------------------------------------------------------------------------------------


 ion  position               nearest neighbor table
   1  0.989  0.200  0.212-
   2  0.954  0.689  0.667-
   3  0.015  0.181  0.794-
   4  0.047  0.825  0.189-
   5  0.214  0.167  0.981-
   6  0.289  0.692  0.016-
   7  0.789  0.197  0.024-
   8  0.839  0.820  0.959-
   9  0.347  0.965  0.320-
  10  0.329  0.038  0.676-
  11  0.707  0.993  0.707-
  12  0.710  0.020  0.289-
  13  0.198  0.725  0.476-
  14  0.183  0.291  0.522-
  15  0.679  0.793  0.518-
  16  0.662  0.219  0.475-
  17  0.200  0.485  0.718-
  18  0.210  0.519  0.295-
  19  0.843  0.469  0.333-
  20  0.704  0.538  0.834-
  21  0.454  0.331  0.825-
  22  0.498  0.689  0.197-
  23  0.543  0.345  0.186-
  24  0.512  0.731  0.806-
  25  0.501  0.502  0.511-  42 2.04  44 2.05  43 2.05  41 2.06
  26  0.500  0.009  0.005-  39 2.05  37 2.05  38 2.05  40 2.06
  27  0.999  0.501  0.002-  34 2.05  33 2.05  36 2.06  35 2.06
  28  1.000  0.999  0.500-  29 2.05  32 2.05  31 2.05  30 2.06
  29  0.114  0.889  0.642-  28 2.05
  30  0.139  0.101  0.375-  28 2.06
  31  0.885  0.865  0.382-  28 2.05
  32  0.875  0.141  0.599-  28 2.05
  33  0.884  0.624  0.131-  27 2.05
  34  0.879  0.377  0.878-  27 2.05
  35  0.100  0.641  0.875-  27 2.06
  36  0.135  0.379  0.111-  27 2.06
  37  0.608  0.138  0.874-  26 2.05
  38  0.634  0.877  0.105-  26 2.05
  39  0.399  0.134  0.143-  26 2.05
  40  0.357  0.901  0.890-  26 2.06
  41  0.633  0.604  0.377-  25 2.06
  42  0.621  0.391  0.646-  25 2.04
  43  0.378  0.636  0.621-  25 2.05
  44  0.387  0.368  0.391-  25 2.05
  45  0.740  0.761  0.748-
  46  0.759  0.253  0.254-
  47  0.269  0.747  0.249-
  48  0.241  0.251  0.753-
  49  0.990  0.030  0.011-
  50  0.045  0.512  0.497-
  51  0.531  0.999  0.499-
  52  0.495  0.529  0.990-
 
  LATTYP: Found a simple cubic cell.
 ALAT       =     9.6500424304
  
  Lattice vectors:
  
 A1 = (   9.6500424304,   0.0000000000,   0.0000000000)
 A2 = (   0.0000000000,   9.6500424304,   0.0000000000)
 A3 = (   0.0000000000,   0.0000000000,   9.6500424304)


Analysis of symmetry for initial positions (statically):
=====================================================================
 Subroutine PRICEL returns:
 Original cell was already a primitive cell.
 

 Routine SETGRP: Setting up the symmetry group for a 
 simple cubic supercell.


 Subroutine GETGRP returns: Found  1 space group operations
 (whereof  1 operations were pure point group operations)
 out of a pool of 48 trial point group operations.


The static configuration has the point symmetry C_1 .


Analysis of symmetry for dynamics (positions and initial velocities):
=====================================================================
 Subroutine PRICEL returns:
 Original cell was already a primitive cell.
 

 Routine SETGRP: Setting up the symmetry group for a 
 simple cubic supercell.


 Subroutine GETGRP returns: Found  1 space group operations
 (whereof  1 operations were pure point group operations)
 out of a pool of 48 trial point group operations.


The dynamic configuration has the point symmetry C_1 .


Analysis of structural, dynamic, and magnetic symmetry:
=====================================================================
 Subroutine PRICEL returns:
 Original cell was already a primitive cell.
 

 Routine SETGRP: Setting up the symmetry group for a 
 simple cubic supercell.


 Subroutine GETGRP returns: Found  1 space group operations
 (whereof  1 operations were pure point group operations)
 out of a pool of 48 trial point group operations.


The overall configuration has the point symmetry C_1 .


 Subroutine INISYM returns: Found  1 space group operations
 (whereof  1 operations are pure point group operations),
 and found     1 'primitive' translations


----------------------------------------------------------------------------------------

                                     Primitive cell                                     

  volume of cell :     898.6440

  direct lattice vectors                    reciprocal lattice vectors
     9.650042430  0.000000000  0.000000000     0.103626487  0.000000000  0.000000000
     0.000000000  9.650042430  0.000000000     0.000000000  0.103626487  0.000000000
     0.000000000  0.000000000  9.650042430     0.000000000  0.000000000  0.103626487

  length of vectors
     9.650042430  9.650042430  9.650042430     0.103626487  0.103626487  0.103626487

  position of ions in fractional coordinates (direct lattice)
     0.988533453  0.199581073  0.211779930
     0.954016684  0.689242905  0.667392984
     0.014577518  0.180585548  0.793520274
     0.047247841  0.824659564  0.188986598
     0.214039869  0.166774221  0.981276897
     0.288719263  0.691817697  0.016311052
     0.789411958  0.196831541  0.024137067
     0.838784321  0.819680992  0.959286473
     0.346979502  0.964679534  0.320492857
     0.328590758  0.037901514  0.675936874
     0.706507876  0.993474564  0.706798476
     0.709586177  0.019620799  0.289107402
     0.198300000  0.725065494  0.476405960
     0.182541968  0.291325011  0.521984807
     0.679105518  0.792966162  0.517931822
     0.661890864  0.219023774  0.474916996
     0.199992950  0.484654131  0.717852861
     0.209558916  0.518712988  0.294890337
     0.843038962  0.468832036  0.332930386
     0.703947816  0.537701042  0.833989160
     0.453878655  0.331382477  0.824940370
     0.497698471  0.689189016  0.196597222
     0.543447852  0.344864950  0.185892443
     0.511672007  0.730759382  0.806077925
     0.501040727  0.501729055  0.510507844
     0.500439852  0.009185950  0.004718902
     0.999449003  0.500994141  0.001892494
     0.999972566  0.999436346  0.500450120
     0.113817119  0.889420659  0.641923499
     0.139159744  0.101330502  0.374638565
     0.885149230  0.864686035  0.382283806
     0.875460880  0.140628119  0.599167318
     0.883909510  0.624441631  0.130523466
     0.879489183  0.377032573  0.878403977
     0.099675958  0.640814339  0.874692375
     0.135054259  0.378535577  0.111305011
     0.607641954  0.138220947  0.873859771
     0.633708121  0.877370626  0.105498128
     0.398908563  0.133926434  0.142888713
     0.356974681  0.900614167  0.890462969
     0.633224595  0.603574132  0.377304953
     0.620573158  0.391161493  0.645610506
     0.378010703  0.635827760  0.621009501
     0.386948306  0.367832404  0.390774474
     0.740248726  0.760984768  0.747978799
     0.758633947  0.252785449  0.254216998
     0.268701129  0.746953728  0.248546457
     0.240605077  0.251313092  0.752612014
     0.989705411  0.029988941  0.011462219
     0.044863511  0.512215006  0.497102495
     0.531319619  0.999260778  0.498789240
     0.494822331  0.529133461  0.989532940

  ion indices of the primitive-cell ions
   primitive index   ion index
                 1           1
                 2           2
                 3           3
                 4           4
                 5           5
                 6           6
                 7           7
                 8           8
                 9           9
                10          10
                11          11
                12          12
                13          13
                14          14
                15          15
                16          16
                17          17
                18          18
                19          19
                20          20
                21          21
                22          22
                23          23
                24          24
                25          25
                26          26
                27          27
                28          28
                29          29
                30          30
                31          31
                32          32
                33          33
                34          34
                35          35
                36          36
                37          37
                38          38
                39          39
                40          40
                41          41
                42          42
                43          43
                44          44
                45          45
                46          46
                47          47
                48          48
                49          49
                50          50
                51          51
                52          52

----------------------------------------------------------------------------------------

 
 
 KPOINTS: Automatic mesh                          

Automatic generation of k-mesh.
 Grid dimensions read from file:
 generate k-points for:    2    2    2

 Generating k-lattice:

  Cartesian coordinates                     Fractional coordinates (reciprocal lattice)
     0.051813244  0.000000000  0.000000000     0.500000000  0.000000000  0.000000000
     0.000000000  0.051813244  0.000000000     0.000000000  0.500000000  0.000000000
     0.000000000  0.000000000  0.051813244     0.000000000  0.000000000  0.500000000

  Length of vectors
     0.051813244  0.051813244  0.051813244

  Shift w.r.t. Gamma in fractional coordinates (k-lattice)
     0.500000000  0.500000000  0.500000000

 
 Subroutine IBZKPT returns following result:
 ===========================================
 
 Found      4 irreducible k-points:
 
 Following reciprocal coordinates:
            Coordinates               Weight
  0.250000  0.250000  0.250000      2.000000
 -0.250000  0.250000  0.250000      2.000000
 -0.250000 -0.250000  0.250000      2.000000
  0.250000 -0.250000  0.250000      2.000000
 
 Following cartesian coordinates:
            Coordinates               Weight
  0.025907  0.025907  0.025907      2.000000
 -0.025907  0.025907  0.025907      2.000000
 -0.025907 -0.025907  0.025907      2.000000
  0.025907 -0.025907  0.025907      2.000000
 


--------------------------------------------------------------------------------------------------------




 Dimension of arrays:
   k-points           NKPTS =      4   k-points in BZ     NKDIM =      4   number of bands    NBANDS=    176
   number of dos      NEDOS =    301   number of ions     NIONS =     52
   non local maximal  LDIM  =      6   non local SUM 2l+1 LMDIM =     18
   total plane-waves  NPLWV = 373248
   max r-space proj   IRMAX =   5795   max aug-charges    IRDMAX=  17727
   dimension x,y,z NGX =    72 NGY =   72 NGZ =   72
   dimension x,y,z NGXF=   144 NGYF=  144 NGZF=  144
   support grid    NGXF=   144 NGYF=  144 NGZF=  144
   ions per type =              24   4  20   4
   NGX,Y,Z   is equivalent  to a cutoff of  12.40, 12.40, 12.40 a.u.
   NGXF,Y,Z  is equivalent  to a cutoff of  24.81, 24.81, 24.81 a.u.

 SYSTEM =  unknown system                          
 POSCAR =  Li24 P4 S20 Cl4                         

 Startparameter for this run:
   NWRITE =      2    write-flag & timer
   PREC   = accu      normal or accurate (medium, high low for compatibility)
   ISTART =      0    job   : 0-new  1-cont  2-samecut
   ICHARG =      2    charge: 1-file 2-atom 10-const
   ISPIN  =      2    spin polarized calculation?
   LNONCOLLINEAR =      F non collinear calculations
   LSORBIT =      F    spin-orbit coupling
   INIWAV =      1    electr: 0-lowe 1-rand  2-diag
   LASPH  =      T    aspherical Exc in radial PAW
 Electronic Relaxation 1
   ENCUT  =  520.0 eV  38.22 Ry    6.18 a.u.  17.94 17.94 17.94*2*pi/ulx,y,z
   ENINI  =  520.0     initial cutoff
   ENAUG  = 1041.7 eV  augmentation charge cutoff
   NELM   =    100;   NELMIN=  2; NELMDL=-10     # of ELM steps 
   EDIFF  = 0.1E-05   stopping-criterion for ELM
   LREAL  =      T    real-space projection
   NLSPLINE    = F    spline interpolate recip. space projectors
   LCOMPAT=      F    compatible to vasp.4.4
   GGA_COMPAT  = T    GGA compatible to vasp.4.4-vasp.4.6
   LMAXPAW     = -100 max onsite density
   LMAXMIX     =    4 max onsite mixed and CHGCAR
   VOSKOWN=      0    Vosko Wilk Nusair interpolation
   ROPT   =   -0.00025  -0.00025  -0.00025  -0.00025
 Ionic relaxation
   EDIFFG = -.1E-02   stopping-criterion for IOM
   NSW    =   1000    number of steps for IOM
   NBLOCK =      1;   KBLOCK =   1000    inner block; outer block 
   IBRION =      2    ionic relax: 0-MD 1-quasi-New 2-CG
   NFREE  =      1    steps in history (QN), initial steepest desc. (CG)
   ISIF   =      2    stress and relaxation
   IWAVPR =     11    prediction:  0-non 1-charg 2-wave 3-comb
   ISYM   =      2    0-nonsym 1-usesym 2-fastsym
   LCORR  =      T    Harris-Foulkes like correction to forces

   POTIM  = 0.2000    time-step for ionic-motion
   TEIN   =    0.0    initial temperature
   TEBEG  =    0.0;   TEEND  =   0.0 temperature during run
   SMASS  =  -3.00    Nose mass-parameter (am)
   estimated Nose-frequenzy (Omega)   =  0.10E-29 period in steps = 0.31E+47 mass=  -0.213E-26a.u.
   SCALEE = 1.0000    scale energy and forces
   NPACO  =    256;   APACO  = 10.0  distance and # of slots for P.C.
   PSTRESS=    0.0 pullay stress

  Mass of Ions in am
   POMASS =   7.01 30.97 32.07 35.45
  Ionic Valenz
   ZVAL   =   3.00  5.00  6.00  7.00
  Atomic Wigner-Seitz radii
   RWIGS  =  -1.00 -1.00 -1.00 -1.00
  virtual crystal weights 
   VCA    =   1.00  1.00  1.00  1.00
   NELECT =     240.0000    total number of electrons
   NUPDOWN=      -1.0000    fix difference up-down

 DOS related values:
   EMIN   =  10.00;   EMAX   =-10.00  energy-range for DOS
   EFERMI =   0.00;   METHOD = LEGACY      
   ISMEAR =     0;   SIGMA  =   0.03  broadening in eV -4-tet -1-fermi 0-gaus

 Electronic relaxation 2 (details)
   IALGO  =     68    algorithm
   LDIAG  =      T    sub-space diagonalisation (order eigenvalues)
   LSUBROT=      F    optimize rotation matrix (better conditioning)
   TURBO    =      0    0=normal 1=particle mesh
   IRESTART =      0    0=no restart 2=restart with 2 vectors
   NREBOOT  =      0    no. of reboots
   NMIN     =      0    reboot dimension
   EREF     =   0.00    reference energy to select bands
   IMIX   =      4    mixing-type and parameters
     AMIX     =   0.40;   BMIX     =  1.00
     AMIX_MAG =   1.60;   BMIX_MAG =  1.00
     AMIN     =   0.10
     WC   =   100.;   INIMIX=   1;  MIXPRE=   1;  MAXMIX= -45

 Intra band minimization:
   WEIMIN = 0.0010     energy-eigenvalue tresh-hold
   EBREAK =  0.14E-08  absolut break condition
   DEPER  =   0.30     relativ break condition  

   TIME   =   0.40     timestep for ELM

  volume/ion in A,a.u.               =      17.28       116.62
  Fermi-wavevector in a.u.,A,eV,Ry     =   1.054264  1.992270 15.122501  1.111472
  Thomas-Fermi vector in A             =   2.189417
 
 Write flags
   LWAVE        =      F    write WAVECAR
   LDOWNSAMPLE  =      F    k-point downsampling of WAVECAR
   LCHARG       =      F    write CHGCAR
   LVTOT        =      F    write LOCPOT, total local potential
   LVHAR        =      F    write LOCPOT, Hartree potential only
   LELF         =      F    write electronic localiz. function (ELF)
   LORBIT       =      0    0 simple, 1 ext, 2 COOP (PROOUT), +10 PAW based schemes


 Dipole corrections
   LMONO  =      F    monopole corrections only (constant potential shift)
   LDIPOL =      F    correct potential (dipole corrections)
   IDIPOL =      0    1-x, 2-y, 3-z, 4-all directions 
   EPSILON=  1.0000000 bulk dielectric constant

 Exchange correlation treatment:
   GGA     =    PE    GGA type
   LEXCH   =     8    internal setting for exchange type
   LIBXC   =     F    Libxc                    
   VOSKOWN =     0    Vosko Wilk Nusair interpolation
   LHFCALC =     F    Hartree Fock is set to
   LHFONE  =     F    Hartree Fock one center treatment
   AEXX    =    0.0000 exact exchange contribution

 Linear response parameters
   LEPSILON=     F    determine dielectric tensor
   LRPA    =     F    only Hartree local field effects (RPA)
   LNABLA  =     F    use nabla operator in PAW spheres
   LVEL    =     F    velocity operator in full k-point grid
   CSHIFT  =0.1000    complex shift for real part using Kramers Kronig
   OMEGAMAX=  -1.0    maximum frequency
   DEG_THRESHOLD= 0.2000000E-02 threshold for treating states as degnerate
   RTIME   =   -0.100 relaxation time in fs
  (WPLASMAI=    0.000 imaginary part of plasma frequency in eV, 0.658/RTIME)
   DFIELD  = 0.0000000 0.0000000 0.0000000 field for delta impulse in time
 
  Optional k-point grid parameters
   LKPOINTS_OPT  =     F    use optional k-point grid
   KPOINTS_OPT_MODE=     1    mode for optional k-point grid
 
 Orbital magnetization related:
   ORBITALMAG=     F  switch on orbital magnetization
   LCHIMAG   =     F  perturbation theory with respect to B field
   DQ        =  0.001000  dq finite difference perturbation B field
   LLRAUG    =     F  two centre corrections for induced B field
   LBONE     =     F  B-component reconstruction in AE one-centre
   LVGVCALC  =     T  calculate vGv susceptibility
   LVGVAPPL  =     F  apply vGv susceptibility instead of pGv for G=0

 Random number generation:
   RANDOM_GENERATOR = DEFAULT
   PCG_SEED         = not used


--------------------------------------------------------------------------------------------------------


 conjugate gradient relaxation of ions
 charge density and potential will be updated during run
 spin polarized calculation
 RMM-DIIS sequential band-by-band and
  variant of blocked Davidson during initial phase
 perform sub-space diagonalisation
    before iterative eigenvector-optimisation
 modified Broyden-mixing scheme, WC =      100.0
 initial mixing is a Kerker type mixing with AMIX =  0.4000 and BMIX =      1.0000
 Hartree-type preconditioning will be used
 using additional bands           56
 real space projection scheme for non local part
 use partial core corrections
 calculate Harris-corrections to forces 
   (improved forces if not selfconsistent)
 use gradient corrections 
 use of overlap-Matrix (Vanderbilt PP)
 Gauss-broadening in eV      SIGMA  =   0.03


--------------------------------------------------------------------------------------------------------


  energy-cutoff  :      520.00
  volume of cell :      898.64
      direct lattice vectors                 reciprocal lattice vectors
     9.650042430  0.000000000  0.000000000     0.103626487  0.000000000  0.000000000
     0.000000000  9.650042430  0.000000000     0.000000000  0.103626487  0.000000000
     0.000000000  0.000000000  9.650042430     0.000000000  0.000000000  0.103626487

  length of vectors
     9.650042430  9.650042430  9.650042430     0.103626487  0.103626487  0.103626487


 
 k-points in units of 2pi/SCALE and weight: Automatic mesh                          
   0.02590662  0.02590662  0.02590662       0.250
  -0.02590662  0.02590662  0.02590662       0.250
  -0.02590662 -0.02590662  0.02590662       0.250
   0.02590662 -0.02590662  0.02590662       0.250
 
 k-points in reciprocal lattice and weights: Automatic mesh                          
   0.25000000  0.25000000  0.25000000       0.250
  -0.25000000  0.25000000  0.25000000       0.250
  -0.25000000 -0.25000000  0.25000000       0.250
   0.25000000 -0.25000000  0.25000000       0.250
 
 position of ions in fractional coordinates (direct lattice) 
   0.98853345  0.19958107  0.21177993
   0.95401668  0.68924291  0.66739298
   0.01457752  0.18058555  0.79352027
   0.04724784  0.82465956  0.18898660
   0.21403987  0.16677422  0.98127690
   0.28871926  0.69181770  0.01631105
   0.78941196  0.19683154  0.02413707
   0.83878432  0.81968099  0.95928647
   0.34697950  0.96467953  0.32049286
   0.32859076  0.03790151  0.67593687
   0.70650788  0.99347456  0.70679848
   0.70958618  0.01962080  0.28910740
   0.19830000  0.72506549  0.47640596
   0.18254197  0.29132501  0.52198481
   0.67910552  0.79296616  0.51793182
   0.66189086  0.21902377  0.47491700
   0.19999295  0.48465413  0.71785286
   0.20955892  0.51871299  0.29489034
   0.84303896  0.46883204  0.33293039
   0.70394782  0.53770104  0.83398916
   0.45387865  0.33138248  0.82494037
   0.49769847  0.68918902  0.19659722
   0.54344785  0.34486495  0.18589244
   0.51167201  0.73075938  0.80607792
   0.50104073  0.50172905  0.51050784
   0.50043985  0.00918595  0.00471890
   0.99944900  0.50099414  0.00189249
   0.99997257  0.99943635  0.50045012
   0.11381712  0.88942066  0.64192350
   0.13915974  0.10133050  0.37463857
   0.88514923  0.86468604  0.38228381
   0.87546088  0.14062812  0.59916732
   0.88390951  0.62444163  0.13052347
   0.87948918  0.37703257  0.87840398
   0.09967596  0.64081434  0.87469238
   0.13505426  0.37853558  0.11130501
   0.60764195  0.13822095  0.87385977
   0.63370812  0.87737063  0.10549813
   0.39890856  0.13392643  0.14288871
   0.35697468  0.90061417  0.89046297
   0.63322460  0.60357413  0.37730495
   0.62057316  0.39116149  0.64561051
   0.37801070  0.63582776  0.62100950
   0.38694831  0.36783240  0.39077447
   0.74024873  0.76098477  0.74797880
   0.75863395  0.25278545  0.25421700
   0.26870113  0.74695373  0.24854646
   0.24060508  0.25131309  0.75261201
   0.98970541  0.02998894  0.01146222
   0.04486351  0.51221501  0.49710249
   0.53131962  0.99926078  0.49878924
   0.49482233  0.52913346  0.98953294
 
 position of ions in cartesian coordinates  (Angst):
   9.53938976  1.92596582  2.04368531
   9.20630148  6.65122328  6.44037062
   0.14067367  1.74265820  7.65750431
   0.45594367  7.95799978  1.82372869
   2.06549382  1.60937831  9.46936369
   2.78615314  6.67607013  0.15740235
   7.61785889  1.89943272  0.23292372
   8.09430428  7.90995635  9.25715517
   3.34836691  9.30919843  3.09276967
   3.17091476  0.36575122  6.52281952
   6.81783098  9.58707170  6.82063528
   6.84753671  0.18934155  2.78989870
   1.91360342  6.99691279  4.59733773
   1.76153774  2.81129872  5.03717554
   6.55339706  7.65215711  4.99806406
   6.38727492  2.11358872  4.58296916
   1.92994045  4.67693293  6.92731057
   2.02225244  5.00560235  2.84570426
   8.13536175  4.52424904  3.21279235
   6.79312629  5.18883787  8.04803078
   4.37994828  3.19785496  7.96070958
   4.80281136  6.65070325  1.89717153
   5.24429483  3.32796140  1.79386996
   4.93765658  7.05185905  7.77868618
   4.83506427  4.84170667  4.92642236
   4.82926581  0.08864481  0.04553761
   9.64472529  4.83461472  0.01826264
   9.64977769  9.64460314  4.82936489
   1.09834002  8.58294710  6.19458900
   1.34289744  0.97784364  3.61527805
   8.54172763  8.34425693  3.68905495
   8.44823464  1.35706732  5.78199005
   8.52976428  6.02588823  1.25955699
   8.48710793  3.63838032  8.47663565
   0.96187722  6.18388557  8.44081854
   1.30327933  3.65288438  1.07409808
   5.86377063  1.33383800  8.43278387
   6.11531026  8.46666376  1.01806141
   3.84948456  1.29239577  1.37888214
   3.44482082  8.69096492  8.59300544
   6.11064421  5.82451599  3.64100881
   5.98855731  3.77472500  6.23016877
   3.64781932  6.13576486  5.99276804
   3.73406757  3.54959831  3.77099025
   7.14343162  7.34353530  7.21802714
   7.32084978  2.43939031  2.45320482
   2.59297729  7.20813517  2.39848386
   2.32184920  2.42518200  7.26273787
   9.55069921  0.28939455  0.11061090
   0.43293478  4.94289654  4.79706017
   5.12725687  9.64290891  4.81333733
   4.77505649  5.10616035  9.54903486
 


--------------------------------------------------------------------------------------------------------


 k-point   1 :   0.2500 0.2500 0.2500  plane waves:   24216
 k-point   2 :  -0.2500 0.2500 0.2500  plane waves:   24216
 k-point   3 :  -0.2500-0.2500 0.2500  plane waves:   24216
 k-point   4 :   0.2500-0.2500 0.2500  plane waves:   24216

 maximum and minimum number of plane-waves per node :       777      739

 maximum number of plane-waves:     24216
 maximum index in each direction: 
   IXMAX=   18   IYMAX=   18   IZMAX=   17
   IXMIN=  -18   IYMIN=  -18   IZMIN=  -18


 real space projection operators:
  total allocation   :      28425.50 KBytes
  max/ min on nodes  :       1184.83        728.50


 parallel 3D FFT for wavefunctions:
    minimum data exchange during FFTs selected (reduces bandwidth)
 parallel 3D FFT for charge:
    minimum data exchange during FFTs selected (reduces bandwidth)


 total amount of memory used by VASP MPI-rank0    48209. kBytes
=======================================================================

   base      :      30000. kBytes
   nonlr-proj:       6549. kBytes
   fftplans  :       1747. kBytes
   grid      :       5278. kBytes
   one-center:         62. kBytes
   wavefun   :       4573. kBytes
 
     INWAV:  cpu time      0.0000: real time      0.0003
 Broyden mixing: mesh for mixing (old mesh)
   NGX = 35   NGY = 35   NGZ = 35
  (NGX  =144   NGY  =144   NGZ  =144)
  gives a total of  42875 points

 initial charge density was supplied:
 charge density of overlapping atoms calculated
 number of electron     240.0000000 magnetization      52.0000000
 keeping initial charge density in first step


--------------------------------------------------------------------------------------------------------


 Maximum index for non-local projection operator          545
 Maximum index for augmentation-charges          934 (set IRDMAX)


--------------------------------------------------------------------------------------------------------


 First call to EWALD:  gamma=   0.184
 Maximum number of real-space cells 3x 3x 3
 Maximum number of reciprocal cells 3x 3x 3

    FEWALD:  cpu time      0.0032: real time      0.0037


--------------------------------------- Ionic step        1  -------------------------------------------




--------------------------------------- Iteration      1(   1)  ---------------------------------------


    POTLOK:  cpu time      0.0582: real time      0.0664
    SETDIJ:  cpu time      0.4022: real time      0.4107
     EDDAV:  cpu time      2.2050: real time      2.3708
       DOS:  cpu time      0.0027: real time      0.0033
    --------------------------------------------
      LOOP:  cpu time      2.6681: real time      2.8513

 eigenvalue-minimisations  :  3088
 total energy-change (2. order) : 0.1590037E+04  (-0.1138795E+05)
 number of electron     240.0000000 magnetization      52.0000000
 augmentation part      240.0000000 magnetization      52.0000000

 Free energy of the ion-electron system (eV)
  ---------------------------------------------------
  alpha Z        PSCENC =       302.07458138
  Ewald energy   TEWEN  =     -8835.70661154
  -Hartree energ DENC   =     -2100.31850162
  -exchange      EXHF   =         0.00000000
  -V(xc)+E(xc)   XCENC  =       534.40235100
  PAW double counting   =      8141.38806575    -8271.61346273
  entropy T*S    EENTRO =        -0.00453290
  eigenvalues    EBANDS =      -883.32505525
  atomic energy  EATOM  =     12703.13999606
  Solvation  Ediel_sol  =         0.00000000
  ---------------------------------------------------
  free energy    TOTEN  =      1590.03683014 eV

  energy without entropy =     1590.04136304  energy(sigma->0) =     1590.03909659


--------------------------------------------------------------------------------------------------------




--------------------------------------- Iteration      1(   2)  ---------------------------------------


     EDDAV:  cpu time      2.6343: real time      2.6654
       DOS:  cpu time      0.0004: real time      0.0004
    --------------------------------------------
      LOOP:  cpu time      2.6347: real time      2.6658

 eigenvalue-minimisations  :  3880
 total energy-change (2. order) :-0.1647041E+04  (-0.1547773E+04)
 number of electron     240.0000000 magnetization      52.0000000
 augmentation part      240.0000000 magnetization      52.0000000

 Free energy of the ion-electron system (eV)
  ---------------------------------------------------
  alpha Z        PSCENC =       302.07458138
  Ewald energy   TEWEN  =     -8835.70661154
  -Hartree energ DENC   =     -2100.31850162
  -exchange      EXHF   =         0.00000000
  -V(xc)+E(xc)   XCENC  =       534.40235100
  PAW double counting   =      8141.38806575    -8271.61346273
  entropy T*S    EENTRO =        -0.00000000
  eigenvalues    EBANDS =     -2530.37105073
  atomic energy  EATOM  =     12703.13999606
  Solvation  Ediel_sol  =         0.00000000
  ---------------------------------------------------
  free energy    TOTEN  =       -57.00463244 eV

  energy without entropy =      -57.00463244  energy(sigma->0) =      -57.00463244


--------------------------------------------------------------------------------------------------------




--------------------------------------- Iteration      1(   3)  ---------------------------------------


     EDDAV:  cpu time      2.5642: real time      2.6002
       DOS:  cpu time      0.0004: real time      0.0004
    --------------------------------------------
      LOOP:  cpu time      2.5646: real time      2.6006

 eigenvalue-minimisations  :  3760
 total energy-change (2. order) :-0.1712987E+03  (-0.1693266E+03)
 number of electron     240.0000000 magnetization      52.0000000
 augmentation part      240.0000000 magnetization      52.0000000

 Free energy of the ion-electron system (eV)
  ---------------------------------------------------
  alpha Z        PSCENC =       302.07458138
  Ewald energy   TEWEN  =     -8835.70661154
  -Hartree energ DENC   =     -2100.31850162
  -exchange      EXHF   =         0.00000000
  -V(xc)+E(xc)   XCENC  =       534.40235100
  PAW double counting   =      8141.38806575    -8271.61346273
  entropy T*S    EENTRO =        -0.00000000
  eigenvalues    EBANDS =     -2701.66978080
  atomic energy  EATOM  =     12703.13999606
  Solvation  Ediel_sol  =         0.00000000
  ---------------------------------------------------
  free energy    TOTEN  =      -228.30336251 eV

  energy without entropy =     -228.30336251  energy(sigma->0) =     -228.30336251


--------------------------------------------------------------------------------------------------------




--------------------------------------- Iteration      1(   4)  ---------------------------------------


     EDDAV:  cpu time      3.1174: real time      3.1931
       DOS:  cpu time      0.0005: real time      0.0005
    --------------------------------------------
      LOOP:  cpu time      3.1178: real time      3.1936

 eigenvalue-minimisations  :  4752
 total energy-change (2. order) :-0.1351987E+02  (-0.1349619E+02)
 number of electron     240.0000000 magnetization      52.0000000
 augmentation part      240.0000000 magnetization      52.0000000

 Free energy of the ion-electron system (eV)
  ---------------------------------------------------
  alpha Z        PSCENC =       302.07458138
  Ewald energy   TEWEN  =     -8835.70661154
  -Hartree energ DENC   =     -2100.31850162
  -exchange      EXHF   =         0.00000000
  -V(xc)+E(xc)   XCENC  =       534.40235100
  PAW double counting   =      8141.38806575    -8271.61346273
  entropy T*S    EENTRO =        -0.00000000
  eigenvalues    EBANDS =     -2715.18965477
  atomic energy  EATOM  =     12703.13999606
  Solvation  Ediel_sol  =         0.00000000
  ---------------------------------------------------
  free energy    TOTEN  =      -241.82323647 eV

  energy without entropy =     -241.82323647  energy(sigma->0) =     -241.82323647


--------------------------------------------------------------------------------------------------------




--------------------------------------- Iteration      1(   5)  ---------------------------------------


     EDDAV:  cpu time      2.9252: real time      2.9485
       DOS:  cpu time      0.0004: real time      0.0004
    --------------------------------------------
      LOOP:  cpu time      2.9256: real time      2.9489

 eigenvalue-minimisations  :  4416
 total energy-change (2. order) :-0.2192818E+00  (-0.2191757E+00)
 number of electron     240.0000000 magnetization      52.0000000
 augmentation part      240.0000000 magnetization      52.0000000

 Free energy of the ion-electron system (eV)
  ---------------------------------------------------
  alpha Z        PSCENC =       302.07458138
  Ewald energy   TEWEN  =     -8835.70661154
  -Hartree energ DENC   =     -2100.31850162
  -exchange      EXHF   =         0.00000000
  -V(xc)+E(xc)   XCENC  =       534.40235100
  PAW double counting   =      8141.38806575    -8271.61346273
  entropy T*S    EENTRO =        -0.00000000
  eigenvalues    EBANDS =     -2715.40893655
  atomic energy  EATOM  =     12703.13999606
  Solvation  Ediel_sol  =         0.00000000
  ---------------------------------------------------
  free energy    TOTEN  =      -242.04251826 eV

  energy without entropy =     -242.04251826  energy(sigma->0) =     -242.04251826


--------------------------------------------------------------------------------------------------------




--------------------------------------- Iteration      1(   6)  ---------------------------------------


     EDDAV:  cpu time      3.0461: real time      3.0729
       DOS:  cpu time      0.0004: real time      0.0004
    --------------------------------------------
      LOOP:  cpu time      3.0465: real time      3.0733

 eigenvalue-minimisations  :  4632
 total energy-change (2. order) :-0.1218563E-01  (-0.1218432E-01)
 number of electron     240.0000000 magnetization      52.0000000
 augmentation part      240.0000000 magnetization      52.0000000

 Free energy of the ion-electron system (eV)
  ---------------------------------------------------
  alpha Z        PSCENC =       302.07458138
  Ewald energy   TEWEN  =     -8835.70661154
  -Hartree energ DENC   =     -2100.31850162
  -exchange      EXHF   =         0.00000000
  -V(xc)+E(xc)   XCENC  =       534.40235100
  PAW double counting   =      8141.38806575    -8271.61346273
  entropy T*S    EENTRO =        -0.00000000
  eigenvalues    EBANDS =     -2715.42112218
  atomic energy  EATOM  =     12703.13999606
  Solvation  Ediel_sol  =         0.00000000
  ---------------------------------------------------
  free energy    TOTEN  =      -242.05470389 eV

  energy without entropy =     -242.05470389  energy(sigma->0) =     -242.05470389


--------------------------------------------------------------------------------------------------------




--------------------------------------- Iteration      1(   7)  ---------------------------------------


     EDDAV:  cpu time      3.0030: real time      3.0463
       DOS:  cpu time      0.0004: real time      0.0004
    --------------------------------------------
      LOOP:  cpu time      3.0034: real time      3.0467

 eigenvalue-minimisations  :  4528
 total energy-change (2. order) :-0.4202176E-03  (-0.4201919E-03)
 number of electron     240.0000000 magnetization      52.0000000
 augmentation part      240.0000000 magnetization      52.0000000

 Free energy of the ion-electron system (eV)
  ---------------------------------------------------
  alpha Z        PSCENC =       302.07458138
  Ewald energy   TEWEN  =     -8835.70661154
  -Hartree energ DENC   =     -2100.31850162
  -exchange      EXHF   =         0.00000000
  -V(xc)+E(xc)   XCENC  =       534.40235100
  PAW double counting   =      8141.38806575    -8271.61346273
  entropy T*S    EENTRO =        -0.00000000
  eigenvalues    EBANDS =     -2715.42154240
  atomic energy  EATOM  =     12703.13999606
  Solvation  Ediel_sol  =         0.00000000
  ---------------------------------------------------
  free energy    TOTEN  =      -242.05512410 eV

  energy without entropy =     -242.05512410  energy(sigma->0) =     -242.05512410


--------------------------------------------------------------------------------------------------------




--------------------------------------- Iteration      1(   8)  ---------------------------------------


     EDDAV:  cpu time      3.0372: real time      3.0834
       DOS:  cpu time      0.0004: real time      0.0004
    --------------------------------------------
      LOOP:  cpu time      3.0376: real time      3.0838

 eigenvalue-minimisations  :  4560
 total energy-change (2. order) :-0.2514047E-04  (-0.2513949E-04)
 number of electron     240.0000000 magnetization      52.0000000
 augmentation part      240.0000000 magnetization      52.0000000

 Free energy of the ion-electron system (eV)
  ---------------------------------------------------
  alpha Z        PSCENC =       302.07458138
  Ewald energy   TEWEN  =     -8835.70661154
  -Hartree energ DENC   =     -2100.31850162
  -exchange      EXHF   =         0.00000000
  -V(xc)+E(xc)   XCENC  =       534.40235100
  PAW double counting   =      8141.38806575    -8271.61346273
  entropy T*S    EENTRO =        -0.00000000
  eigenvalues    EBANDS =     -2715.42156754
  atomic energy  EATOM  =     12703.13999606
  Solvation  Ediel_sol  =         0.00000000
  ---------------------------------------------------
  free energy    TOTEN  =      -242.05514924 eV

  energy without entropy =     -242.05514924  energy(sigma->0) =     -242.05514924


--------------------------------------------------------------------------------------------------------




--------------------------------------- Iteration      1(   9)  ---------------------------------------


     EDDAV:  cpu time      2.9861: real time      3.0101
       DOS:  cpu time      0.0004: real time      0.0004
    --------------------------------------------
      LOOP:  cpu time      2.9865: real time      3.0105

 eigenvalue-minimisations  :  4472
 total energy-change (2. order) :-0.1663764E-05  (-0.1663760E-05)
 number of electron     240.0000000 magnetization      52.0000000
 augmentation part      240.0000000 magnetization      52.0000000

 Free energy of the ion-electron system (eV)
  ---------------------------------------------------
  alpha Z        PSCENC =       302.07458138
  Ewald energy   TEWEN  =     -8835.70661154
  -Hartree energ DENC   =     -2100.31850162
  -exchange      EXHF   =         0.00000000
  -V(xc)+E(xc)   XCENC  =       534.40235100
  PAW double counting   =      8141.38806575    -8271.61346273
  entropy T*S    EENTRO =        -0.00000000
  eigenvalues    EBANDS =     -2715.42156920
  atomic energy  EATOM  =     12703.13999606
  Solvation  Ediel_sol  =         0.00000000
  ---------------------------------------------------
  free energy    TOTEN  =      -242.05515091 eV

  energy without entropy =     -242.05515091  energy(sigma->0) =     -242.05515091


--------------------------------------------------------------------------------------------------------




--------------------------------------- Iteration      1(  10)  ---------------------------------------


     EDDAV:  cpu time      1.9708: real time      1.9868
       DOS:  cpu time      0.0004: real time      0.0004
    CHARGE:  cpu time      0.0679: real time      0.0746
    MIXING:  cpu time      0.0022: real time      0.0038
    --------------------------------------------
      LOOP:  cpu time      2.0413: real time      2.0656

 eigenvalue-minimisations  :  2640
 total energy-change (2. order) :-0.7906056E-07  (-0.7913027E-07)
 number of electron     240.0000007 magnetization      27.2295526
 augmentation part        1.4935794 magnetization      27.6719631

 Broyden mixing:
  rms(total) = 0.64222E+01    rms(broyden)= 0.64216E+01
  rms(prec ) = 0.66629E+01
  weight for this iteration     100.00

 Free energy of the ion-electron system (eV)
  ---------------------------------------------------
  alpha Z        PSCENC =       302.07458138
  Ewald energy   TEWEN  =     -8835.70661154
  -Hartree energ DENC   =     -2100.31850162
  -exchange      EXHF   =         0.00000000
  -V(xc)+E(xc)   XCENC  =       534.40235100
  PAW double counting   =      8141.38806575    -8271.61346273
  entropy T*S    EENTRO =        -0.00000000
  eigenvalues    EBANDS =     -2715.42156928
  atomic energy  EATOM  =     12703.13999606
  Solvation  Ediel_sol  =         0.00000000
  ---------------------------------------------------
  free energy    TOTEN  =      -242.05515099 eV

  energy without entropy =     -242.05515099  energy(sigma->0) =     -242.05515099


--------------------------------------------------------------------------------------------------------




--------------------------------------- Iteration      1(  11)  ---------------------------------------


    POTLOK:  cpu time      0.0543: real time      0.0552
    SETDIJ:  cpu time      0.3980: real time      0.4010
    EDDIAG:  cpu time      0.3652: real time      0.3678
  RMM-DIIS:  cpu time      1.1730: real time      1.1836
    ORTHCH:  cpu time      0.0669: real time      0.0683
       DOS:  cpu time      0.0005: real time      0.0005
    CHARGE:  cpu time      0.0656: real time      0.0677
    MIXING:  cpu time      0.0011: real time      0.0026
    --------------------------------------------
      LOOP:  cpu time      2.1247: real time      2.1466

 eigenvalue-minimisations  :  2816
 total energy-change (2. order) : 0.5445340E+01  (-0.4661545E+01)
 number of electron     240.0000007 magnetization      16.2960046
 augmentation part        1.7044980 magnetization      16.4783675

 Broyden mixing:
  rms(total) = 0.33069E+01    rms(broyden)= 0.33067E+01
  rms(prec ) = 0.34229E+01
  weight for this iteration     100.00

 eigenvalues of (default mixing * dielectric matrix)
  average eigenvalue GAMMA=   0.7253
  0.7253

 Free energy of the ion-electron system (eV)
  ---------------------------------------------------
  alpha Z        PSCENC =       302.07458138
  Ewald energy   TEWEN  =     -8835.70661154
  -Hartree energ DENC   =     -2148.05995311
  -exchange      EXHF   =         0.00000000
  -V(xc)+E(xc)   XCENC  =       542.55359749
  PAW double counting   =      8926.48116251    -9062.76360295
  entropy T*S    EENTRO =        -0.00000000
  eigenvalues    EBANDS =     -2664.32898057
  atomic energy  EATOM  =     12703.13999606
  Solvation  Ediel_sol  =         0.00000000
  ---------------------------------------------------
  free energy    TOTEN  =      -236.60981073 eV

  energy without entropy =     -236.60981073  energy(sigma->0) =     -236.60981073


--------------------------------------------------------------------------------------------------------




--------------------------------------- Iteration      1(  12)  ---------------------------------------


    POTLOK:  cpu time      0.0528: real time      0.0536
    SETDIJ:  cpu time      0.4013: real time      0.4031
    EDDIAG:  cpu time      0.3575: real time      0.3605
  RMM-DIIS:  cpu time      1.2224: real time      1.2328
    ORTHCH:  cpu time      0.0670: real time      0.0678
       DOS:  cpu time      0.0004: real time      0.0004
    CHARGE:  cpu time      0.0652: real time      0.0673
    MIXING:  cpu time      0.0011: real time      0.0012
    --------------------------------------------
      LOOP:  cpu time      2.1677: real time      2.1867

 eigenvalue-minimisations  :  2951
 total energy-change (2. order) :-0.1941864E+02  (-0.2101304E+01)
 number of electron     240.0000007 magnetization       0.4496623
 augmentation part        1.8019993 magnetization       0.7894622

 Broyden mixing:
  rms(total) = 0.20181E+01    rms(broyden)= 0.20180E+01
  rms(prec ) = 0.20799E+01
  weight for this iteration     100.00

 eigenvalues of (default mixing * dielectric matrix)
  average eigenvalue GAMMA=   1.1625
  1.6536  0.6713

 Free energy of the ion-electron system (eV)
  ---------------------------------------------------
  alpha Z        PSCENC =       302.07458138
  Ewald energy   TEWEN  =     -8835.70661154
  -Hartree energ DENC   =     -2171.93907583
  -exchange      EXHF   =         0.00000000
  -V(xc)+E(xc)   XCENC  =       536.23591634
  PAW double counting   =      9279.15999952    -9419.02531125
  entropy T*S    EENTRO =        -0.00000000
  eigenvalues    EBANDS =     -2649.96794936
  atomic energy  EATOM  =     12703.13999606
  Solvation  Ediel_sol  =         0.00000000
  ---------------------------------------------------
  free energy    TOTEN  =      -256.02845468 eV

  energy without entropy =     -256.02845468  energy(sigma->0) =     -256.02845468


--------------------------------------------------------------------------------------------------------




--------------------------------------- Iteration      1(  13)  ---------------------------------------


    POTLOK:  cpu time      0.0526: real time      0.0535
    SETDIJ:  cpu time      0.4008: real time      0.4025
    EDDIAG:  cpu time      0.3559: real time      0.3584
  RMM-DIIS:  cpu time      1.2069: real time      1.2173
    ORTHCH:  cpu time      0.0679: real time      0.0695
       DOS:  cpu time      0.0004: real time      0.0004
    CHARGE:  cpu time      0.0653: real time      0.0674
    MIXING:  cpu time      0.0010: real time      0.0010
    --------------------------------------------
      LOOP:  cpu time      2.1508: real time      2.1700

 eigenvalue-minimisations  :  2910
 total energy-change (2. order) :-0.2472110E+01  (-0.9050226E+00)
 number of electron     240.0000006 magnetization      -1.8322401
 augmentation part        1.9014314 magnetization      -1.7292855

 Broyden mixing:
  rms(total) = 0.65992E+00    rms(broyden)= 0.65992E+00
  rms(prec ) = 0.69271E+00
  weight for this iteration     100.00

 eigenvalues of (default mixing * dielectric matrix)
  average eigenvalue GAMMA=   1.3006
  2.4996  0.7490  0.6533

 Free energy of the ion-electron system (eV)
  ---------------------------------------------------
  alpha Z        PSCENC =       302.07458138
  Ewald energy   TEWEN  =     -8835.70661154
  -Hartree energ DENC   =     -2199.60316095
  -exchange      EXHF   =         0.00000000
  -V(xc)+E(xc)   XCENC  =       537.80557685
  PAW double counting   =      9782.70849133    -9926.53985129
  entropy T*S    EENTRO =        -0.00000000
  eigenvalues    EBANDS =     -2622.37958684
  atomic energy  EATOM  =     12703.13999606
  Solvation  Ediel_sol  =         0.00000000
  ---------------------------------------------------
  free energy    TOTEN  =      -258.50056500 eV

  energy without entropy =     -258.50056500  energy(sigma->0) =     -258.50056500


--------------------------------------------------------------------------------------------------------




--------------------------------------- Iteration      1(  14)  ---------------------------------------


    POTLOK:  cpu time      0.0521: real time      0.0530
    SETDIJ:  cpu time      0.4011: real time      0.4026
    EDDIAG:  cpu time      0.3563: real time      0.3586
  RMM-DIIS:  cpu time      1.5669: real time      1.5805
    ORTHCH:  cpu time      0.0668: real time      0.0678
       DOS:  cpu time      0.0004: real time      0.0005
    CHARGE:  cpu time      0.0652: real time      0.0668
    MIXING:  cpu time      0.0011: real time      0.0011
    --------------------------------------------
      LOOP:  cpu time      2.5098: real time      2.5308

 eigenvalue-minimisations  :  3780
 total energy-change (2. order) :-0.2002534E+00  (-0.1977470E+00)
 number of electron     240.0000006 magnetization      -0.8341120
 augmentation part        1.8709645 magnetization      -0.8065318

 Broyden mixing:
  rms(total) = 0.32220E+00    rms(broyden)= 0.32220E+00
  rms(prec ) = 0.35708E+00
  weight for this iteration     100.00

 eigenvalues of (default mixing * dielectric matrix)
  average eigenvalue GAMMA=   1.2653
  2.6068  1.1744  0.6896  0.5904

 Free energy of the ion-electron system (eV)
  ---------------------------------------------------
  alpha Z        PSCENC =       302.07458138
  Ewald energy   TEWEN  =     -8835.70661154
  -Hartree energ DENC   =     -2200.91320073
  -exchange      EXHF   =         0.00000000
  -V(xc)+E(xc)   XCENC  =       538.23292364
  PAW double counting   =      9856.62864055   -10001.23412667
  entropy T*S    EENTRO =        -0.00000000
  eigenvalues    EBANDS =     -2620.92302106
  atomic energy  EATOM  =     12703.13999606
  Solvation  Ediel_sol  =         0.00000000
  ---------------------------------------------------
  free energy    TOTEN  =      -258.70081838 eV

  energy without entropy =     -258.70081838  energy(sigma->0) =     -258.70081838


--------------------------------------------------------------------------------------------------------




--------------------------------------- Iteration      1(  15)  ---------------------------------------


    POTLOK:  cpu time      0.0518: real time      0.0528
    SETDIJ:  cpu time      0.4012: real time      0.4029
    EDDIAG:  cpu time      0.3556: real time      0.3590
  RMM-DIIS:  cpu time      1.2803: real time      1.2916
    ORTHCH:  cpu time      0.0663: real time      0.0667
       DOS:  cpu time      0.0005: real time      0.0005
    CHARGE:  cpu time      0.0653: real time      0.0664
    MIXING:  cpu time      0.0011: real time      0.0011
    --------------------------------------------
      LOOP:  cpu time      2.2220: real time      2.2411

 eigenvalue-minimisations  :  3064
 total energy-change (2. order) : 0.2727541E-01  (-0.3285302E-01)
 number of electron     240.0000006 magnetization      -0.2230077
 augmentation part        1.8231618 magnetization      -0.1961504

 Broyden mixing:
  rms(total) = 0.69142E-01    rms(broyden)= 0.69139E-01
  rms(prec ) = 0.81873E-01
  weight for this iteration     100.00

 eigenvalues of (default mixing * dielectric matrix)
  average eigenvalue GAMMA=   1.2708
  2.5345  1.5868  0.9480  0.6848  0.5999

 Free energy of the ion-electron system (eV)
  ---------------------------------------------------
  alpha Z        PSCENC =       302.07458138
  Ewald energy   TEWEN  =     -8835.70661154
  -Hartree energ DENC   =     -2196.51315188
  -exchange      EXHF   =         0.00000000
  -V(xc)+E(xc)   XCENC  =       537.89220618
  PAW double counting   =      9828.79897969    -9973.22206880
  entropy T*S    EENTRO =        -0.00000000
  eigenvalues    EBANDS =     -2625.13747405
  atomic energy  EATOM  =     12703.13999606
  Solvation  Ediel_sol  =         0.00000000
  ---------------------------------------------------
  free energy    TOTEN  =      -258.67354297 eV

  energy without entropy =     -258.67354297  energy(sigma->0) =     -258.67354297


--------------------------------------------------------------------------------------------------------




--------------------------------------- Iteration      1(  16)  ---------------------------------------


    POTLOK:  cpu time      0.0518: real time      0.0527
    SETDIJ:  cpu time      0.4019: real time      0.4032
    EDDIAG:  cpu time      0.3581: real time      0.3607
  RMM-DIIS:  cpu time      1.2835: real time      1.2954
    ORTHCH:  cpu time      0.0672: real time      0.0676
       DOS:  cpu time      0.0005: real time      0.0005
    CHARGE:  cpu time      0.0641: real time      0.0650
    MIXING:  cpu time      0.0012: real time      0.0012
    --------------------------------------------
      LOOP:  cpu time      2.2283: real time      2.2463

 eigenvalue-minimisations  :  3088
 total energy-change (2. order) :-0.1926087E-01  (-0.1046667E-01)
 number of electron     240.0000006 magnetization      -0.1051169
 augmentation part        1.8010284 magnetization      -0.0903822

 Broyden mixing:
  rms(total) = 0.30822E-01    rms(broyden)= 0.30820E-01
  rms(prec ) = 0.37275E-01
  weight for this iteration     100.00

 eigenvalues of (default mixing * dielectric matrix)
  average eigenvalue GAMMA=   1.2493
  2.4521  1.9460  1.0353  0.6195  0.6981  0.7447

 Free energy of the ion-electron system (eV)
  ---------------------------------------------------
  alpha Z        PSCENC =       302.07458138
  Ewald energy   TEWEN  =     -8835.70661154
  -Hartree energ DENC   =     -2195.95169130
  -exchange      EXHF   =         0.00000000
  -V(xc)+E(xc)   XCENC  =       537.81271583
  PAW double counting   =      9817.59872555    -9961.79934017
  entropy T*S    EENTRO =        -0.00000000
  eigenvalues    EBANDS =     -2625.86117965
  atomic energy  EATOM  =     12703.13999606
[...]
  0.003  -0.002  -0.000  -0.001   0.004   0.000  -0.000   0.000   0.000  -0.000  -0.000  -0.000   0.000   0.000
 -0.002   0.001   0.000  -0.001   0.000   0.007  -0.000   0.000   0.000   0.000  -0.000   0.000   0.000  -0.000
 -0.010   0.010   0.000   0.004  -0.006   0.004   0.000  -0.000   0.000   0.000  -0.000   0.000  -0.000  -0.000
 -0.014   0.014   0.000  -0.003  -0.004  -0.006  -0.000  -0.000  -0.000  -0.000   0.000   0.000  -0.000  -0.000
 -0.011   0.012   0.000  -0.004   0.000   0.005  -0.000  -0.000   0.000   0.000   0.000   0.000   0.000  -0.000
  0.005  -0.004  -0.000  -0.006   0.005   0.005  -0.000   0.000   0.000  -0.000  -0.000   0.000   0.000   0.000
  0.024  -0.024  -0.000   0.000   0.004  -0.008   0.000   0.000  -0.000  -0.000  -0.000  -0.000   0.000   0.000
 total augmentation occupancy for first ion, spin component:           2
 -0.000   0.000   0.000   0.000  -0.000   0.000   0.000  -0.000   0.000  -0.000  -0.000   0.000   0.000  -0.000
  0.000  -0.000  -0.000   0.000  -0.000  -0.000   0.000  -0.000   0.000   0.000  -0.000  -0.000  -0.000  -0.000
  0.000  -0.000  -0.000   0.000   0.000  -0.000   0.000   0.000  -0.000  -0.000  -0.000  -0.000   0.000   0.000
  0.000   0.000   0.000  -0.000  -0.000  -0.000  -0.000  -0.000   0.000   0.000   0.000   0.000   0.000  -0.000
 -0.000  -0.000   0.000  -0.000  -0.000  -0.000  -0.000  -0.000  -0.000  -0.000  -0.000   0.000  -0.000   0.000
  0.000  -0.000  -0.000  -0.000  -0.000  -0.000   0.000  -0.000   0.000  -0.000   0.000   0.000   0.000   0.000
  0.000   0.000   0.000  -0.000  -0.000   0.000   0.000   0.000   0.000   0.000  -0.000   0.000   0.000  -0.000
 -0.000  -0.000   0.000  -0.000  -0.000  -0.000   0.000  -0.000  -0.000  -0.000   0.000  -0.000  -0.000   0.000
  0.000   0.000  -0.000   0.000  -0.000   0.000   0.000  -0.000   0.000   0.000  -0.000   0.000   0.000  -0.000
 -0.000   0.000  -0.000   0.000  -0.000  -0.000   0.000  -0.000   0.000  -0.000   0.000  -0.000  -0.000  -0.000
 -0.000  -0.000  -0.000   0.000  -0.000   0.000  -0.000   0.000  -0.000   0.000   0.000  -0.000  -0.000  -0.000
  0.000  -0.000  -0.000   0.000   0.000   0.000   0.000  -0.000   0.000  -0.000  -0.000  -0.000   0.000  -0.000
  0.000  -0.000   0.000   0.000  -0.000   0.000   0.000  -0.000   0.000  -0.000  -0.000   0.000  -0.000  -0.000
 -0.000  -0.000   0.000  -0.000   0.000   0.000  -0.000   0.000  -0.000  -0.000  -0.000  -0.000  -0.000  -0.000


------------------------ aborting loop because EDIFF is reached ----------------------------------------


    CHARGE:  cpu time      0.0641: real time      0.0647
    FORLOC:  cpu time      0.0038: real time      0.0038
    FORNL :  cpu time      0.3943: real time      0.3968
    STRESS:  cpu time      1.1775: real time      1.1849
    FORCOR:  cpu time      0.0499: real time      0.0503
    FORHAR:  cpu time      0.0087: real time      0.0088
    MIXING:  cpu time      0.0007: real time      0.0007
    OFIELD:  cpu time      0.0000: real time      0.0000

 ---------------------------------------------------------------------------------------------

         DFTD3 V3.0 Rev 1        
 Edisp (eV)  -13.61942

 E6    (eV) :    -8.3927
 E8    (eV) :    -5.2267
 % E8        : 38.38
    FORVDW:  cpu time      0.2925: real time      0.2943

  FORCE on cell =-STRESS in cart. coord.  units (eV):
  Direction    XX          YY          ZZ          XY          YZ          ZX
  --------------------------------------------------------------------------------------
  Alpha Z   302.07458   302.07458   302.07458
  Ewald   -2996.17751 -2927.98161 -2911.62043   -45.35084    55.19536    38.36736
  Hartree   706.08350   738.65298   753.75320   -16.58161    19.03421    12.51874
  E(xc)    -947.87202  -947.67885  -947.73978    -0.11592     0.14440     0.07295
  Local   -1422.96902 -1516.79950 -1550.10092    57.20234   -69.81396   -47.36747
  n-local  1481.87881  1481.06546  1481.70863    -0.49241     0.87202     0.71497
  augment  -357.19687  -356.55780  -357.00091    -0.23232     0.10141     0.00479
  Kinetic  3248.81399  3239.66057  3244.73372     5.59007    -3.70431    -2.01521
  Fock        0.00000     0.00000     0.00000     0.00000     0.00000     0.00000
  vdW       -14.40883   -14.39967   -14.36563    -0.00267     0.00310     0.00519
  -------------------------------------------------------------------------------------
  Total       0.22663    -1.96384     1.44245     0.01663     1.83223     2.30133
  in kB       0.40406    -3.50129     2.57172     0.02965     3.26665     4.10300
  external pressure =       -0.18 kB  Pullay stress =        0.00 kB


 VOLUME and BASIS-vectors are now :
 -----------------------------------------------------------------------------
  energy-cutoff  :      520.00
  volume of cell :      898.64
      direct lattice vectors                 reciprocal lattice vectors
     9.650042430  0.000000000  0.000000000     0.103626487  0.000000000  0.000000000
     0.000000000  9.650042430  0.000000000     0.000000000  0.103626487  0.000000000
     0.000000000  0.000000000  9.650042430     0.000000000  0.000000000  0.103626487

  length of vectors
     9.650042430  9.650042430  9.650042430     0.103626487  0.103626487  0.103626487


 FORCES acting on ions
    electron-ion (+dipol)            ewald-force                    non-local-force                 convergence-correction
 -----------------------------------------------------------------------------------------------
   -.482E+01 -.323E+01 -.761E+01   0.411E+01 0.381E+01 0.853E+01   0.705E+00 -.578E+00 -.924E+00   -.317E-04 -.344E-05 -.227E-04
   0.900E+01 0.133E+02 0.757E+01   -.100E+02 -.120E+02 -.619E+01   0.104E+01 -.130E+01 -.138E+01   0.160E-04 -.444E-04 0.236E-04
   0.471E+01 0.829E+01 0.439E+00   -.381E+01 -.696E+01 -.177E+01   -.893E+00 -.133E+01 0.133E+01   -.147E-04 0.408E-04 -.199E-04
   -.101E+01 -.809E+01 0.131E+02   0.210E+01 0.663E+01 -.117E+02   -.109E+01 0.145E+01 -.135E+01   0.800E-05 -.140E-04 0.708E-05
   0.937E+00 0.667E+01 -.384E+01   0.151E-01 -.546E+01 0.317E+01   -.951E+00 -.121E+01 0.670E+00   -.296E-04 0.344E-04 0.383E-05
   0.284E+01 0.361E+01 0.332E+01   -.401E+01 -.257E+01 -.244E+01   0.117E+01 -.104E+01 -.871E+00   -.308E-04 -.199E-04 -.601E-04
   0.391E+01 -.612E+00 0.285E+01   -.479E+01 0.170E+01 -.213E+01   0.886E+00 -.110E+01 -.719E+00   0.679E-05 -.557E-04 0.292E-04
   -.131E+02 -.577E+01 -.130E+00   0.114E+02 0.492E+01 -.104E+01   0.166E+01 0.840E+00 0.117E+01   -.280E-04 -.126E-04 0.325E-05
   -.480E+01 0.143E+01 -.102E+02   0.368E+01 -.206E+01 0.891E+01   0.112E+01 0.638E+00 0.129E+01   -.261E-04 -.491E-04 0.442E-05
   -.112E+02 0.403E+01 0.159E+02   0.974E+01 -.279E+01 -.143E+02   0.145E+01 -.124E+01 -.160E+01   0.967E-05 -.532E-04 -.184E-04
   -.131E+01 -.381E+01 -.444E+01   0.195E+01 0.315E+01 0.544E+01   -.636E+00 0.655E+00 -.100E+01   0.196E-04 0.646E-06 -.591E-04
   0.426E+01 0.455E+01 -.305E+00   -.326E+01 -.371E+01 -.864E+00   -.997E+00 -.836E+00 0.117E+01   0.117E-04 0.204E-04 0.461E-04
   0.190E+00 -.932E+01 0.143E+01   0.928E+00 0.978E+01 -.199E+01   -.113E+01 -.462E+00 0.560E+00   0.747E-05 -.203E-04 0.800E-04
   0.842E+01 0.166E+01 0.433E+01   -.732E+01 -.284E+01 -.349E+01   -.111E+01 0.118E+01 -.839E+00   -.145E-04 0.358E-04 -.105E-04
   0.361E+01 0.440E+01 0.555E+01   -.283E+01 -.564E+01 -.479E+01   -.777E+00 0.124E+01 -.754E+00   -.167E-04 0.568E-05 0.272E-04
   0.431E+01 -.487E+01 -.286E+01   -.314E+01 0.561E+01 0.224E+01   -.117E+01 -.728E+00 0.621E+00   0.121E-03 -.386E-04 0.391E-04
   0.231E+01 0.177E+01 -.544E+01   -.177E+01 -.248E+01 0.647E+01   -.548E+00 0.713E+00 -.104E+01   0.251E-04 0.673E-04 0.131E-04
   0.394E+01 0.523E+01 0.619E+01   -.307E+01 -.450E+01 -.720E+01   -.872E+00 -.727E+00 0.102E+01   0.114E-04 -.161E-04 0.781E-04
   -.887E+01 -.294E+00 -.147E+02   0.744E+01 -.462E+00 0.134E+02   0.143E+01 0.754E+00 0.125E+01   0.401E-04 -.155E-04 0.411E-04
   -.461E+01 0.215E+01 -.688E+01   0.559E+01 -.177E+01 0.563E+01   -.980E+00 -.382E+00 0.124E+01   -.992E-05 0.423E-04 -.500E-04
   0.441E+01 -.435E+01 -.109E+02   -.517E+01 0.308E+01 0.943E+01   0.764E+00 0.127E+01 0.144E+01   -.473E-04 0.815E-04 -.150E-04
   -.751E+01 0.474E+01 -.134E+01   0.693E+01 -.396E+01 0.258E+01   0.576E+00 -.781E+00 -.124E+01   -.226E-04 0.563E-04 -.446E-04
   0.132E+01 -.145E+02 0.143E+02   -.242E+00 0.128E+02 -.130E+02   -.107E+01 0.172E+01 -.131E+01   -.946E-05 0.801E-05 -.453E-05
   0.427E+01 -.538E+00 -.158E+00   -.342E+01 0.148E+01 -.994E+00   -.849E+00 -.941E+00 0.116E+01   -.711E-04 -.550E-04 -.261E-04
   -.326E+01 -.360E+01 0.194E+01   0.357E+01 0.317E+01 -.176E+01   -.304E+00 0.432E+00 -.194E+00   -.781E-04 0.110E-03 0.132E-03
   0.189E+01 0.389E+01 -.213E+01   -.198E+01 -.353E+01 0.221E+01   0.920E-01 -.352E+00 -.832E-01   0.585E-04 -.582E-04 0.975E-05
   0.124E+01 0.743E+00 -.515E+01   -.158E+01 -.709E+00 0.519E+01   0.339E+00 -.249E-01 -.397E-01   0.907E-04 0.211E-05 -.438E-04
   0.293E+00 -.375E+01 -.183E+01   -.228E+00 0.358E+01 0.206E+01   -.579E-01 0.166E+00 -.224E+00   -.165E-04 0.852E-05 -.640E-04
   -.364E+02 0.208E+02 -.665E+02   0.386E+02 -.228E+02 0.707E+02   -.225E+01 0.198E+01 -.426E+01   0.772E-04 -.166E-03 -.901E-04
   -.492E+02 -.280E+02 0.396E+02   0.527E+02 0.301E+02 -.427E+02   -.349E+01 -.214E+01 0.317E+01   -.677E-04 -.201E-04 0.502E-04
   0.273E+02 0.593E+02 0.395E+02   -.293E+02 -.633E+02 -.423E+02   0.200E+01 0.400E+01 0.280E+01   -.294E-05 0.896E-04 0.436E-05
   0.279E+02 -.682E+02 -.246E+02   -.304E+02 0.729E+02 0.267E+02   0.246E+01 -.469E+01 -.210E+01   -.127E-03 0.419E-04 -.102E-03
   0.504E+02 -.300E+02 -.454E+02   -.536E+02 0.325E+02 0.486E+02   0.321E+01 -.256E+01 -.322E+01   0.875E-04 0.313E-04 0.335E-04
   0.369E+02 0.252E+02 0.545E+02   -.399E+02 -.275E+02 -.584E+02   0.300E+01 0.230E+01 0.389E+01   0.986E-04 0.647E-04 -.430E-04
   -.232E+02 -.568E+02 0.296E+02   0.249E+02 0.609E+02 -.320E+02   -.174E+01 -.414E+01 0.240E+01   0.119E-03 -.386E-04 -.125E-03
   -.552E+02 0.278E+02 -.294E+02   0.595E+02 -.306E+02 0.319E+02   -.430E+01 0.277E+01 -.248E+01   -.104E-03 0.608E-04 -.362E-04
   -.283E+02 -.425E+02 0.442E+02   0.305E+02 0.460E+02 -.475E+02   -.213E+01 -.346E+01 0.325E+01   -.322E-05 -.473E-04 0.667E-04
   -.441E+02 0.479E+02 -.305E+02   0.476E+02 -.515E+02 0.328E+02   -.355E+01 0.358E+01 -.226E+01   -.477E-06 -.516E-05 -.178E-05
   0.344E+02 -.456E+02 -.492E+02   -.366E+02 0.486E+02 0.526E+02   0.221E+01 -.304E+01 -.341E+01   0.394E-04 -.521E-04 -.472E-04
   0.665E+02 0.235E+02 0.335E+02   -.710E+02 -.252E+02 -.361E+02   0.448E+01 0.174E+01 0.255E+01   0.571E-04 -.178E-03 -.303E-04
   -.511E+02 -.239E+02 0.424E+02   0.547E+02 0.260E+02 -.457E+02   -.359E+01 -.216E+01 0.335E+01   -.331E-04 0.368E-04 0.116E-03
   -.597E+02 0.334E+02 -.306E+02   0.632E+02 -.361E+02 0.334E+02   -.346E+01 0.268E+01 -.275E+01   -.951E-06 0.787E-04 -.134E-04
   0.252E+02 -.550E+02 -.298E+02   -.282E+02 0.589E+02 0.326E+02   0.300E+01 -.387E+01 -.281E+01   -.702E-04 -.375E-04 0.886E-04
   0.261E+02 0.582E+02 0.386E+02   -.281E+02 -.623E+02 -.415E+02   0.199E+01 0.410E+01 0.286E+01   -.200E-03 0.164E-03 0.360E-05
   -.157E+02 0.518E+01 -.317E+00   0.159E+02 -.520E+01 0.382E+00   -.266E+00 0.201E-01 -.650E-01   -.451E-04 -.101E-03 -.345E-04
   -.686E+00 -.233E+02 -.607E+01   0.613E+00 0.237E+02 0.620E+01   0.706E-01 -.380E+00 -.130E+00   0.994E-04 -.172E-03 0.853E-04
   -.130E+00 -.143E+02 0.235E+01   0.124E+00 0.147E+02 -.237E+01   0.469E-02 -.360E+00 0.977E-02   -.458E-04 -.321E-04 0.129E-04
   -.788E+01 0.253E+01 0.747E+00   0.809E+01 -.265E+01 -.705E+00   -.213E+00 0.119E+00 -.417E-01   -.292E-04 0.220E-03 -.934E-06
   -.155E+02 0.402E+02 0.123E+02   0.158E+02 -.408E+02 -.125E+02   -.300E+00 0.606E+00 0.220E+00   -.127E-03 0.298E-03 0.240E-03
   0.572E+02 0.196E+02 -.325E+00   -.581E+02 -.200E+02 0.338E+00   0.920E+00 0.382E+00 -.122E-01   0.264E-03 0.834E-04 0.691E-04
   0.387E+02 0.282E+00 -.389E+01   -.393E+02 -.256E+00 0.401E+01   0.586E+00 -.254E-01 -.122E+00   0.297E-03 -.114E-03 0.218E-04
   -.153E+01 0.242E+02 -.196E+02   0.146E+01 -.246E+02 0.198E+02   0.784E-01 0.420E+00 -.218E+00   -.123E-03 0.152E-03 -.307E-03
 -----------------------------------------------------------------------------------------------
   0.347E+01 0.413E+01 0.114E-01   -.719E-13 0.746E-13 -.284E-13   -.347E+01 -.412E+01 -.258E-01   0.138E-03 0.415E-03 0.595E-04
 
 
 POSITION                                       TOTAL-FORCE (eV/Angst)
 -----------------------------------------------------------------------------------
      9.53941      1.92602      2.04367         0.000111      0.000285     -0.000086
      9.20628      6.65125      6.44034        -0.000159      0.000102     -0.000157
      0.14068      1.74258      7.65747         0.000033     -0.000492     -0.000175
      0.45593      7.95798      1.82374        -0.000040     -0.000122      0.000059
      2.06551      1.60935      9.46936         0.000083     -0.000158     -0.000026
      2.78613      6.67604      0.15741        -0.000081     -0.000166      0.000094
      7.61784      1.89943      0.23291        -0.000069     -0.000028     -0.000080
      8.09434      7.90995      9.25714         0.000182     -0.000043     -0.000085
      3.34837      9.30919      3.09273         0.000004     -0.000022     -0.000169
      3.17095      0.36575      6.52285         0.000160     -0.000020      0.000148
      6.81786      9.58709      6.82062         0.000134      0.000081     -0.000101
      6.84761      0.18934      2.78989         0.000485     -0.000011     -0.000034
      1.91359      6.99693      4.59735        -0.000079      0.000090      0.000034
      1.76152      2.81126      5.03718        -0.000111     -0.000179      0.000027
      6.55337      7.65216      4.99807        -0.000145     -0.000006      0.000027
      6.38713      2.11363      4.58293        -0.000927      0.000231     -0.000261
      1.92991      4.67692      6.92730        -0.000189     -0.000102     -0.000046
      2.02230      5.00557      2.84573         0.000239     -0.000158      0.000129
      8.13535      4.52425      3.21280        -0.000077      0.000005      0.000077
      6.79316      5.18886      8.04812         0.000170      0.000154      0.000602
      4.37995      3.19786      7.96070         0.000012      0.000047     -0.000023
      4.80282      6.65075      1.89718         0.000011      0.000219      0.000017
      5.24431      3.32800      1.79389         0.000066      0.000223      0.000087
      4.93763      7.05187      7.77867        -0.000064      0.000036     -0.000042
      4.83512      4.84170      4.92644        -0.000175      0.000031      0.000179
      4.82925      0.08868      0.04554         0.000145     -0.000081      0.000009
      9.64470      4.83457      0.01827         0.000226      0.000064     -0.000144
      9.64978      9.64461      4.82937        -0.000063      0.000052     -0.000106
      1.09833      8.58297      6.19461        -0.000081      0.000151      0.000026
      1.34290      0.97783      3.61524        -0.000029     -0.000059     -0.000110
      8.54173      8.34422      3.68907         0.000030     -0.000160      0.000100
      8.44821      1.35711      5.78193        -0.000008      0.000093     -0.000227
      8.52975      6.02588      1.25955        -0.000058     -0.000184     -0.000061
      8.48714      3.63835      8.47662         0.000179     -0.000010      0.000090
      0.96187      6.18391      8.44079         0.000012      0.000123     -0.000144
      1.30334      3.65290      1.07408         0.000100      0.000060     -0.000071
      5.86377      1.33384      8.43275        -0.000093     -0.000040     -0.000042
      6.11535      8.46667      1.01806         0.000161     -0.000004      0.000058
      3.84951      1.29242      1.37890         0.000164      0.000003     -0.000140
      3.44480      8.69095      8.59304        -0.000048      0.000032      0.000150
      6.11063      5.82452      3.64100        -0.000143     -0.000101      0.000118
      5.98859      3.77477      6.23021         0.000116      0.000259     -0.000035
      3.64779      6.13577      5.99278        -0.000150      0.000109      0.000110
      3.73408      3.54954      3.77103         0.000179     -0.000207      0.000202
      7.14342      7.34355      7.21804        -0.000086      0.000036      0.000002
      7.32085      2.43940      2.45320         0.000029      0.000016     -0.000065
      2.59297      7.20812      2.39849        -0.000026     -0.000094      0.000058
      2.32185      2.42517      7.26274        -0.000010     -0.000030      0.000004
      9.55071      0.28935      0.11060         0.000018     -0.000033     -0.000005
      0.43291      4.94289      4.79705        -0.000076     -0.000012     -0.000024
      5.12722      9.64290      4.81332        -0.000072      0.000008     -0.000034
      4.77505      5.10616      9.54908         0.000008      0.000012      0.000088
 -----------------------------------------------------------------------------------
    total drift:                               -0.007325      0.005940     -0.014359


--------------------------------------------------------------------------------------------------------



  FREE ENERGIE OF THE ION-ELECTRON SYSTEM (eV)
  ---------------------------------------------------
  free  energy   TOTEN  =      -272.31999884 eV

  energy  without entropy=     -272.31999884  energy(sigma->0) =     -272.31999884
 
 d Force = 0.2729594E-06[ 0.182E-06, 0.364E-06]  d Energy = 0.4653666E-06-0.192E-06
 d Force = 0.2802351E-02[ 0.280E-02, 0.280E-02]  d Ewald  = 0.2802351E-02 0.236E-10


--------------------------------------------------------------------------------------------------------


    POTLOK:  cpu time      0.4493: real time      0.4510


--------------------------------------------------------------------------------------------------------


 stress matrix after NEB project (eV)
      0.22663      0.01663      2.30133
      0.01663     -1.96384      1.83223
      2.30133      1.83223      1.44245
  FORCES: max atom, RMS     0.000990    0.000263
  FORCE total and by dimension    0.001899    0.000927
  Stress total and by dimension    4.826550    2.301329
 Conjugate gradient step on ions:
 trial-energy change:   -0.000000  1 .order   -0.000000   -0.000000   -0.000000
  (g-gl).g = 0.234E-06      g.g   = 0.257E-06  gl.gl    = 0.500E-06
 g(Force)  = 0.257E-06   g(Stress)= 0.000E+00 ortho     = 0.230E-07
 gamma     =   0.46891
 trial     =   1.35649
 opt step  =   2.71432  (harmonic =   2.71432) maximal distance =0.00006340
 next E    =  -272.319999   (d E  =  -0.00000)


--------------------------------------------------------------------------------------------------------


  
 reached required accuracy - stopping structural energy minimisation
     LOOP+:  cpu time      7.3481: real time      7.4185
    4ORBIT:  cpu time      0.0000: real time      0.0000

 total amount of memory used by VASP MPI-rank0    48209. kBytes
=======================================================================

   base      :      30000. kBytes
   nonlr-proj:       6549. kBytes
   fftplans  :       1747. kBytes
   grid      :       5278. kBytes
   one-center:         62. kBytes
   wavefun   :       4573. kBytes
 
  
  
 General timing and accounting informations for this job:
 ========================================================
  
                  Total CPU time used (sec):      100.806
                            User time (sec):       99.669
                          System time (sec):        1.137
                         Elapsed time (sec):      104.610
  
                   Maximum memory used (kb):      383128.
                   Average memory used (kb):          N/A
  
                          Minor page faults:        59354
                          Major page faults:          140
                 Voluntary context switches:         5398
