unknown system                          
           1
     9.650042    0.000000    0.000000
     0.000000    9.650042    0.000000
     0.000000    0.000000    9.650042
   Li   P    S    Cl
    24     4    20     4
Direct configuration=     1
   0.98853345  0.19958107  0.21177993
   0.95401668  0.68924291  0.66739298
   0.01457752  0.18058555  0.79352027
   0.04724784  0.82465956  0.18898660
   0.21403987  0.16677422  0.98127690
   0.28871926  0.69181770  0.01631105
   0.78941196  0.19683154  0.02413707
   0.83878432  0.81968099  0.95928647
   0.34697950  0.96467953  0.32049286
   0.32859076  0.03790151  0.67593687
   0.70650788  0.99347456  0.70679848
   0.70958618  0.01962080  0.28910740
   0.19830000  0.72506549  0.47640596
   0.18254197  0.29132501  0.52198481
   0.67910552  0.79296616  0.51793182
   0.66189086  0.21902377  0.47491700
   0.19999295  0.48465413  0.71785286
   0.20955892  0.51871299  0.29489034
   0.84303896  0.46883204  0.33293039
   0.70394782  0.53770104  0.83398916
   0.45387865  0.33138248  0.82494037
   0.49769847  0.68918902  0.19659722
   0.54344785  0.34486495  0.18589244
   0.51167201  0.73075938  0.80607792
   0.50104073  0.50172905  0.51050784
   0.50043985  0.00918595  0.00471890
   0.99944900  0.50099414  0.00189249
   0.99997257  0.99943635  0.50045012
   0.11381712  0.88942066  0.64192350
   0.13915974  0.10133050  0.37463857
   0.88514923  0.86468604  0.38228381
   0.87546088  0.14062812  0.59916732
   0.88390951  0.62444163  0.13052347
   0.87948918  0.37703257  0.87840398
   0.09967596  0.64081434  0.87469238
   0.13505426  0.37853558  0.11130501
   0.60764195  0.13822095  0.87385977
   0.63370812  0.87737063  0.10549813
   0.39890856  0.13392643  0.14288871
   0.35697468  0.90061417  0.89046297
   0.63322460  0.60357413  0.37730495
   0.62057316  0.39116149  0.64561051
   0.37801070  0.63582776  0.62100950
   0.38694831  0.36783240  0.39077447
   0.74024873  0.76098477  0.74797880
   0.75863395  0.25278545  0.25421700
   0.26870113  0.74695373  0.24854646
   0.24060508  0.25131309  0.75261201
   0.98970541  0.02998894  0.01146222
   0.04486351  0.51221501  0.49710249
   0.53131962  0.99926078  0.49878924
   0.49482233  0.52913346  0.98953294
Direct configuration=     2
   0.98853385  0.19958247  0.21177951
   0.95401602  0.68924365  0.66739228
   0.01457762  0.18058377  0.79351950
   0.04724749  0.82465898  0.18898697
   0.21404044  0.16677353  0.98127677
   0.28871880  0.69181709  0.01631129
   0.78941163  0.19683152  0.02413677
   0.83878515  0.81968075  0.95928618
   0.34697957  0.96467942  0.32049195
   0.32859155  0.03790146  0.67593768
   0.70650857  0.99347506  0.70679799
   0.70958817  0.01962074  0.28910721
   0.19829970  0.72506592  0.47640626
   0.18254160  0.29132414  0.52198486
   0.67910487  0.79296616  0.51793195
   0.66188735  0.21902491  0.47491597
   0.19999215  0.48465384  0.71785262
   0.20956015  0.51871227  0.29489094
   0.84303853  0.46883204  0.33293064
   0.70394865  0.53770163  0.83399144
   0.45387878  0.33138271  0.82494012
   0.49769869  0.68919022  0.19659740
   0.54344819  0.34486599  0.18589299
   0.51167137  0.73075971  0.80607759
   0.50104315  0.50172866  0.51050792
   0.50043900  0.00918755  0.00471904
   0.99944756  0.50099222  0.00189321
   0.99997262  0.99943641  0.50045049
   0.11381691  0.88942128  0.64192415
   0.13916012  0.10133028  0.37463752
   0.88514915  0.86468494  0.38228405
   0.87546019  0.14062925  0.59916586
   0.88390935  0.62444140  0.13052319
   0.87949023  0.37703210  0.87840370
   0.09967635  0.64081572  0.87469118
   0.13505577  0.37853605  0.11130454
   0.60764194  0.13822087  0.87385881
   0.63370943  0.87737029  0.10549833
   0.39890943  0.13392670  0.14288886
   0.35697408  0.90061376  0.89046370
   0.63322394  0.60357418  0.37730489
   0.62057376  0.39116284  0.64561151
   0.37800950  0.63582838  0.62101008
   0.38694839  0.36783072  0.39077529
   0.74024841  0.76098514  0.74797904
   0.75863404  0.25278575  0.25421694
   0.26870107  0.74695358  0.24854661
   0.24060519  0.25131284  0.75261199
   0.98970597  0.02998703  0.01146176
   0.04486234  0.51221465  0.49710227
   0.53131802  0.99926074  0.49878861
   0.49482224  0.52913323  0.98953431
Direct configuration=     3
   0.98853409  0.19958330  0.21177926
   0.95401563  0.68924409  0.66739186
   0.01457768  0.18058272  0.79351904
   0.04724728  0.82465863  0.18898719
   0.21404078  0.16677313  0.98127670
   0.28871852  0.69181673  0.01631144
   0.78941144  0.19683151  0.02413659
   0.83878565  0.81968060  0.95928600
   0.34697962  0.96467936  0.32049142
   0.32859203  0.03790142  0.67593816
   0.70650898  0.99347536  0.70679771
   0.70958936  0.01962071  0.28910710
   0.19829952  0.72506618  0.47640644
   0.18254138  0.29132363  0.52198490
   0.67910448  0.79296615  0.51793203
   0.66188527  0.21902559  0.47491536
   0.19999168  0.48465367  0.71785248
   0.20956088  0.51871184  0.29489130
   0.84303828  0.46883204  0.33293079
   0.70394915  0.53770198  0.83399280
   0.45387885  0.33138284  0.82493996
   0.49769881  0.68919094  0.19659751
   0.54344838  0.34486660  0.18589331
   0.51167100  0.73075990  0.80607738
   0.50104459  0.50172842  0.51050797
   0.50043849  0.00918850  0.00471912
   0.99944670  0.50099107  0.00189364
   0.99997265  0.99943645  0.50045071
   0.11381679  0.88942164  0.64192453
   0.13916034  0.10133015  0.37463689
   0.88514910  0.86468429  0.38228419
   0.87545977  0.14062993  0.59916499
   0.88390925  0.62444126  0.13052302
   0.87949086  0.37703182  0.87840354
   0.09967658  0.64081653  0.87469048
   0.13505667  0.37853634  0.11130426
   0.60764194  0.13822082  0.87385824
   0.63371021  0.87737008  0.10549844
   0.39890994  0.13392685  0.14288894
   0.35697373  0.90061351  0.89046413
   0.63322355  0.60357421  0.37730486
   0.62057411  0.39116364  0.64561210
   0.37800878  0.63582874  0.62101042
   0.38694844  0.36782972  0.39077578
   0.74024822  0.76098536  0.74797919
   0.75863410  0.25278593  0.25421690
   0.26870104  0.74695350  0.24854670
   0.24060526  0.25131270  0.75261198
   0.98970629  0.02998589  0.01146148
   0.04486165  0.51221443  0.49710214
   0.53131707  0.99926072  0.49878823
   0.49482219  0.52913309  0.98953513
Direct configuration=     4
   0.98853456  0.19958496  0.21177876
   0.95401484  0.68924498  0.66739103
   0.01457780  0.18058061  0.79351811
   0.04724687  0.82465794  0.18898764
   0.21404146  0.16677231  0.98127655
   0.28871796  0.69181600  0.01631173
   0.78941106  0.19683148  0.02413624
   0.83878664  0.81968031  0.95928565
   0.34697970  0.96467923  0.32049034
   0.32859297  0.03790136  0.67593911
   0.70650981  0.99347595  0.70679713
   0.70959173  0.01962064  0.28910688
   0.19829917  0.72506669  0.47640679
   0.18254094  0.29132259  0.52198496
   0.67910371  0.79296615  0.51793218
   0.66188109  0.21902695  0.47491413
   0.19999074  0.48465333  0.71785219
   0.20956235  0.51871099  0.29489201
   0.84303777  0.46883204  0.33293110
   0.70395014  0.53770269  0.83399552
   0.45387900  0.33138312  0.82493966
   0.49769907  0.68919237  0.19659772
   0.54344878  0.34486784  0.18589396
   0.51167024  0.73076029  0.80607698
   0.50104746  0.50172796  0.51050806
   0.50043748  0.00919040  0.00471928
   0.99944499  0.50098878  0.00189449
   0.99997271  0.99943653  0.50045116
   0.11381654  0.88942238  0.64192530
   0.13916079  0.10132989  0.37463565
   0.88514900  0.86468299  0.38228447
   0.87545895  0.14063127  0.59916326
   0.88390906  0.62444098  0.13052269
   0.87949210  0.37703125  0.87840321
   0.09967705  0.64081817  0.87468906
   0.13505846  0.37853690  0.11130370
   0.60764192  0.13822073  0.87385711
   0.63371177  0.87736968  0.10549868
   0.39891096  0.13392716  0.14288911
   0.35697301  0.90061303  0.89046500
   0.63322277  0.60357426  0.37730479
   0.62057482  0.39116525  0.64561330
   0.37800735  0.63582948  0.62101110
   0.38694855  0.36782771  0.39077676
   0.74024785  0.76098580  0.74797948
   0.75863422  0.25278629  0.25421683
   0.26870097  0.74695332  0.24854688
   0.24060540  0.25131240  0.75261196
   0.98970695  0.02998361  0.01146093
   0.04486026  0.51221400  0.49710188
   0.53131517  0.99926068  0.49878748
   0.49482209  0.52913281  0.98953676
Direct configuration=     5
   0.98853521  0.19958667  0.21177829
   0.95401402  0.68924574  0.66739016
   0.01457804  0.18057785  0.79351705
   0.04724650  0.82465716  0.18898800
   0.21404198  0.16677122  0.98127623
   0.28871719  0.69181495  0.01631202
   0.78941051  0.19683117  0.02413582
   0.83878777  0.81967999  0.95928514
   0.34697970  0.96467898  0.32048923
   0.32859401  0.03790120  0.67594009
   0.70651065  0.99347643  0.70679647
   0.70959428  0.01962040  0.28910657
   0.19829876  0.72506719  0.47640723
   0.18254030  0.29132143  0.52198505
   0.67910268  0.79296622  0.51793243
   0.66187593  0.21902828  0.47491259
   0.19998958  0.48465316  0.71785191
   0.20956392  0.51871004  0.29489289
   0.84303728  0.46883201  0.33293153
   0.70395106  0.53770376  0.83399880
   0.45387890  0.33138350  0.82493941
   0.49769915  0.68919401  0.19659775
   0.54344916  0.34486931  0.18589463
   0.51166940  0.73076061  0.80607654
   0.50104603  0.50172854  0.51050921
   0.50043843  0.00918953  0.00471932
   0.99944632  0.50098960  0.00189376
   0.99997254  0.99943670  0.50045058
   0.11381623  0.88942299  0.64192606
   0.13916036  0.10132938  0.37463472
   0.88514922  0.86468202  0.38228521
   0.87545829  0.14063242  0.59916158
   0.88390835  0.62444046  0.13052259
   0.87949226  0.37702953  0.87840207
   0.09967563  0.64081707  0.87468983
   0.13506012  0.37853717  0.11130337
   0.60764194  0.13822072  0.87385596
   0.63371188  0.87737091  0.10549796
   0.39891116  0.13392853  0.14289009
   0.35697272  0.90061279  0.89046614
   0.63322291  0.60357496  0.37730393
   0.62057651  0.39116594  0.64561507
   0.37800741  0.63582821  0.62101044
   0.38694967  0.36782663  0.39077868
   0.74024714  0.76098623  0.74797964
   0.75863444  0.25278632  0.25421641
   0.26870073  0.74695266  0.24854725
   0.24060535  0.25131226  0.75261187
   0.98970698  0.02998396  0.01146114
   0.04486107  0.51221404  0.49710168
   0.53131542  0.99926029  0.49878697
   0.49482199  0.52913340  0.98953738
