  52  52   0   4
  0.1763589E+02  0.9715539E-09  0.9715539E-09  0.9715539E-09  0.2000000E-15
  1.000000000000000E-004
  CAR 
 unknown system                          
     12.34868216    -45.24711390  301      1.83744938      1.00000000
    -45.247  0.0000E+00  0.0000E+00  0.0000E+00  0.0000E+00
    -45.055  0.0000E+00  0.0000E+00  0.0000E+00  0.0000E+00
    -44.863  0.0000E+00  0.0000E+00  0.0000E+00  0.0000E+00
    -44.671  0.0000E+00  0.0000E+00  0.0000E+00  0.0000E+00
    -44.479  0.0000E+00  0.0000E+00  0.0000E+00  0.0000E+00
    -44.287  0.0000E+00  0.0000E+00  0.0000E+00  0.0000E+00
    -44.095  0.0000E+00  0.0000E+00  0.0000E+00  0.0000E+00
    -43.903  0.0000E+00  0.0000E+00  0.0000E+00  0.0000E+00
    -43.711  0.0000E+00  0.0000E+00  0.0000E+00  0.0000E+00
    -43.519  0.0000E+00  0.0000E+00  0.0000E+00  0.0000E+00
    -43.327  0.0000E+00  0.0000E+00  0.0000E+00  0.0000E+00
    -43.135  0.0000E+00  0.0000E+00  0.0000E+00  0.0000E+00
    -42.943  0.0000E+00  0.0000E+00  0.0000E+00  0.0000E+00
    -42.751  0.4364E-10  0.4364E-10  0.8378E-11  0.8378E-11
    -42.559  0.3476E-01  0.3476E-01  0.6673E-02  0.6673E-02
    -42.367  0.8215E-01  0.8215E-01  0.2245E-01  0.2245E-01
    -42.175  0.8040E-02  0.8040E-02  0.2400E-01  0.2400E-01
    -41.983  0.0000E+00  0.0000E+00  0.2400E-01  0.2400E-01
    -41.791  0.0000E+00  0.0000E+00  0.2400E-01  0.2400E-01
    -41.599  0.0000E+00  0.0000E+00  0.2400E-01  0.2400E-01
    -41.407  0.0000E+00  0.0000E+00  0.2400E-01  0.2400E-01
    -41.215  0.0000E+00  0.0000E+00  0.2400E-01  0.2400E-01
    -41.023  0.0000E+00  0.0000E+00  0.2400E-01  0.2400E-01
    -40.831  0.0000E+00  0.0000E+00  0.2400E-01  0.2400E-01
    -40.639  0.0000E+00  0.0000E+00  0.2400E-01  0.2400E-01
    -40.447  0.0000E+00  0.0000E+00  0.2400E-01  0.2400E-01
    -40.255  0.0000E+00  0.0000E+00  0.2400E-01  0.2400E-01
    -40.063  0.0000E+00  0.0000E+00  0.2400E-01  0.2400E-01
    -39.872  0.0000E+00  0.0000E+00  0.2400E-01  0.2400E-01
    -39.680  0.0000E+00  0.0000E+00  0.2400E-01  0.2400E-01
    -39.488  0.0000E+00  0.0000E+00  0.2400E-01  0.2400E-01
    -39.296  0.0000E+00  0.0000E+00  0.2400E-01  0.2400E-01
    -39.104  0.0000E+00  0.0000E+00  0.2400E-01  0.2400E-01
    -38.912  0.0000E+00  0.0000E+00  0.2400E-01  0.2400E-01
    -38.720  0.0000E+00  0.0000E+00  0.2400E-01  0.2400E-01
    -38.528  0.0000E+00  0.0000E+00  0.2400E-01  0.2400E-01
    -38.336  0.0000E+00  0.0000E+00  0.2400E-01  0.2400E-01
    -38.144  0.0000E+00  0.0000E+00  0.2400E-01  0.2400E-01
    -37.952  0.0000E+00  0.0000E+00  0.2400E-01  0.2400E-01
    -37.760  0.0000E+00  0.0000E+00  0.2400E-01  0.2400E-01
    -37.568  0.0000E+00  0.0000E+00  0.2400E-01  0.2400E-01
    -37.376  0.0000E+00  0.0000E+00  0.2400E-01  0.2400E-01
    -37.184  0.0000E+00  0.0000E+00  0.2400E-01  0.2400E-01
    -36.992  0.0000E+00  0.0000E+00  0.2400E-01  0.2400E-01
    -36.800  0.0000E+00  0.0000E+00  0.2400E-01  0.2400E-01
    -36.608  0.0000E+00  0.0000E+00  0.2400E-01  0.2400E-01
    -36.416  0.0000E+00  0.0000E+00  0.2400E-01  0.2400E-01
    -36.224  0.0000E+00  0.0000E+00  0.2400E-01  0.2400E-01
    -36.032  0.0000E+00  0.0000E+00  0.2400E-01  0.2400E-01
    -35.840  0.0000E+00  0.0000E+00  0.2400E-01  0.2400E-01
    -35.648  0.0000E+00  0.0000E+00  0.2400E-01  0.2400E-01
    -35.456  0.0000E+00  0.0000E+00  0.2400E-01  0.2400E-01
    -35.264  0.0000E+00  0.0000E+00  0.2400E-01  0.2400E-01
    -35.072  0.0000E+00  0.0000E+00  0.2400E-01  0.2400E-01
    -34.880  0.0000E+00  0.0000E+00  0.2400E-01  0.2400E-01
    -34.688  0.0000E+00  0.0000E+00  0.2400E-01  0.2400E-01
    -34.496  0.0000E+00  0.0000E+00  0.2400E-01  0.2400E-01
    -34.304  0.0000E+00  0.0000E+00  0.2400E-01  0.2400E-01
    -34.112  0.0000E+00  0.0000E+00  0.2400E-01  0.2400E-01
    -33.920  0.0000E+00  0.0000E+00  0.2400E-01  0.2400E-01
    -33.728  0.0000E+00  0.0000E+00  0.2400E-01  0.2400E-01
    -33.536  0.0000E+00  0.0000E+00  0.2400E-01  0.2400E-01
    -33.344  0.0000E+00  0.0000E+00  0.2400E-01  0.2400E-01
    -33.152  0.0000E+00  0.0000E+00  0.2400E-01  0.2400E-01
    -32.960  0.0000E+00  0.0000E+00  0.2400E-01  0.2400E-01
    -32.768  0.0000E+00  0.0000E+00  0.2400E-01  0.2400E-01
    -32.576  0.0000E+00  0.0000E+00  0.2400E-01  0.2400E-01
    -32.384  0.0000E+00  0.0000E+00  0.2400E-01  0.2400E-01
    -32.192  0.0000E+00  0.0000E+00  0.2400E-01  0.2400E-01
    -32.000  0.0000E+00  0.0000E+00  0.2400E-01  0.2400E-01
    -31.808  0.0000E+00  0.0000E+00  0.2400E-01  0.2400E-01
    -31.616  0.0000E+00  0.0000E+00  0.2400E-01  0.2400E-01
    -31.424  0.0000E+00  0.0000E+00  0.2400E-01  0.2400E-01
    -31.232  0.0000E+00  0.0000E+00  0.2400E-01  0.2400E-01
    -31.040  0.0000E+00  0.0000E+00  0.2400E-01  0.2400E-01
    -30.848  0.0000E+00  0.0000E+00  0.2400E-01  0.2400E-01
    -30.656  0.0000E+00  0.0000E+00  0.2400E-01  0.2400E-01
    -30.464  0.0000E+00  0.0000E+00  0.2400E-01  0.2400E-01
    -30.272  0.0000E+00  0.0000E+00  0.2400E-01  0.2400E-01
    -30.080  0.0000E+00  0.0000E+00  0.2400E-01  0.2400E-01
    -29.888  0.0000E+00  0.0000E+00  0.2400E-01  0.2400E-01
    -29.696  0.0000E+00  0.0000E+00  0.2400E-01  0.2400E-01
    -29.504  0.0000E+00  0.0000E+00  0.2400E-01  0.2400E-01
    -29.312  0.0000E+00  0.0000E+00  0.2400E-01  0.2400E-01
    -29.120  0.0000E+00  0.0000E+00  0.2400E-01  0.2400E-01
    -28.928  0.0000E+00  0.0000E+00  0.2400E-01  0.2400E-01
    -28.736  0.0000E+00  0.0000E+00  0.2400E-01  0.2400E-01
    -28.544  0.0000E+00  0.0000E+00  0.2400E-01  0.2400E-01
    -28.352  0.0000E+00  0.0000E+00  0.2400E-01  0.2400E-01
    -28.160  0.0000E+00  0.0000E+00  0.2400E-01  0.2400E-01
    -27.968  0.0000E+00  0.0000E+00  0.2400E-01  0.2400E-01
    -27.776  0.0000E+00  0.0000E+00  0.2400E-01  0.2400E-01
    -27.584  0.0000E+00  0.0000E+00  0.2400E-01  0.2400E-01
    -27.392  0.0000E+00  0.0000E+00  0.2400E-01  0.2400E-01
    -27.200  0.0000E+00  0.0000E+00  0.2400E-01  0.2400E-01
    -27.008  0.0000E+00  0.0000E+00  0.2400E-01  0.2400E-01
    -26.816  0.0000E+00  0.0000E+00  0.2400E-01  0.2400E-01
    -26.624  0.0000E+00  0.0000E+00  0.2400E-01  0.2400E-01
    -26.432  0.0000E+00  0.0000E+00  0.2400E-01  0.2400E-01
    -26.241  0.0000E+00  0.0000E+00  0.2400E-01  0.2400E-01
    -26.049  0.0000E+00  0.0000E+00  0.2400E-01  0.2400E-01
    -25.857  0.0000E+00  0.0000E+00  0.2400E-01  0.2400E-01
    -25.665  0.0000E+00  0.0000E+00  0.2400E-01  0.2400E-01
    -25.473  0.0000E+00  0.0000E+00  0.2400E-01  0.2400E-01
    -25.281  0.0000E+00  0.0000E+00  0.2400E-01  0.2400E-01
    -25.089  0.0000E+00  0.0000E+00  0.2400E-01  0.2400E-01
    -24.897  0.0000E+00  0.0000E+00  0.2400E-01  0.2400E-01
    -24.705  0.0000E+00  0.0000E+00  0.2400E-01  0.2400E-01
    -24.513  0.0000E+00  0.0000E+00  0.2400E-01  0.2400E-01
    -24.321  0.0000E+00  0.0000E+00  0.2400E-01  0.2400E-01
    -24.129  0.0000E+00  0.0000E+00  0.2400E-01  0.2400E-01
    -23.937  0.0000E+00  0.0000E+00  0.2400E-01  0.2400E-01
    -23.745  0.0000E+00  0.0000E+00  0.2400E-01  0.2400E-01
    -23.553  0.0000E+00  0.0000E+00  0.2400E-01  0.2400E-01
    -23.361  0.0000E+00  0.0000E+00  0.2400E-01  0.2400E-01
    -23.169  0.0000E+00  0.0000E+00  0.2400E-01  0.2400E-01
    -22.977  0.0000E+00  0.0000E+00  0.2400E-01  0.2400E-01
    -22.785  0.0000E+00  0.0000E+00  0.2400E-01  0.2400E-01
    -22.593  0.0000E+00  0.0000E+00  0.2400E-01  0.2400E-01
    -22.401  0.0000E+00  0.0000E+00  0.2400E-01  0.2400E-01
    -22.209  0.0000E+00  0.0000E+00  0.2400E-01  0.2400E-01
    -22.017  0.0000E+00  0.0000E+00  0.2400E-01  0.2400E-01
    -21.825  0.0000E+00  0.0000E+00  0.2400E-01  0.2400E-01
    -21.633  0.0000E+00  0.0000E+00  0.2400E-01  0.2400E-01
    -21.441  0.0000E+00  0.0000E+00  0.2400E-01  0.2400E-01
    -21.249  0.0000E+00  0.0000E+00  0.2400E-01  0.2400E-01
    -21.057  0.0000E+00  0.0000E+00  0.2400E-01  0.2400E-01
    -20.865  0.0000E+00  0.0000E+00  0.2400E-01  0.2400E-01
    -20.673  0.0000E+00  0.0000E+00  0.2400E-01  0.2400E-01
    -20.481  0.0000E+00  0.0000E+00  0.2400E-01  0.2400E-01
    -20.289  0.0000E+00  0.0000E+00  0.2400E-01  0.2400E-01
    -20.097  0.0000E+00  0.0000E+00  0.2400E-01  0.2400E-01
    -19.905  0.0000E+00  0.0000E+00  0.2400E-01  0.2400E-01
    -19.713  0.0000E+00  0.0000E+00  0.2400E-01  0.2400E-01
    -19.521  0.0000E+00  0.0000E+00  0.2400E-01  0.2400E-01
    -19.329  0.0000E+00  0.0000E+00  0.2400E-01  0.2400E-01
    -19.137  0.0000E+00  0.0000E+00  0.2400E-01  0.2400E-01
    -18.945  0.0000E+00  0.0000E+00  0.2400E-01  0.2400E-01
    -18.753  0.0000E+00  0.0000E+00  0.2400E-01  0.2400E-01
    -18.561  0.0000E+00  0.0000E+00  0.2400E-01  0.2400E-01
    -18.369  0.0000E+00  0.0000E+00  0.2400E-01  0.2400E-01
    -18.177  0.0000E+00  0.0000E+00  0.2400E-01  0.2400E-01
    -17.985  0.0000E+00  0.0000E+00  0.2400E-01  0.2400E-01
    -17.793  0.0000E+00  0.0000E+00  0.2400E-01  0.2400E-01
    -17.601  0.0000E+00  0.0000E+00  0.2400E-01  0.2400E-01
    -17.409  0.0000E+00  0.0000E+00  0.2400E-01  0.2400E-01
    -17.217  0.0000E+00  0.0000E+00  0.2400E-01  0.2400E-01
    -17.025  0.0000E+00  0.0000E+00  0.2400E-01  0.2400E-01
    -16.833  0.0000E+00  0.0000E+00  0.2400E-01  0.2400E-01
    -16.641  0.0000E+00  0.0000E+00  0.2400E-01  0.2400E-01
    -16.449  0.0000E+00  0.0000E+00  0.2400E-01  0.2400E-01
    -16.257  0.0000E+00  0.0000E+00  0.2400E-01  0.2400E-01
    -16.065  0.0000E+00  0.0000E+00  0.2400E-01  0.2400E-01
    -15.873  0.0000E+00  0.0000E+00  0.2400E-01  0.2400E-01
    -15.681  0.0000E+00  0.0000E+00  0.2400E-01  0.2400E-01
    -15.489  0.0000E+00  0.0000E+00  0.2400E-01  0.2400E-01
    -15.297  0.0000E+00  0.0000E+00  0.2400E-01  0.2400E-01
    -15.105  0.0000E+00  0.0000E+00  0.2400E-01  0.2400E-01
    -14.913  0.0000E+00  0.0000E+00  0.2400E-01  0.2400E-01
    -14.721  0.0000E+00  0.0000E+00  0.2400E-01  0.2400E-01
    -14.529  0.0000E+00  0.0000E+00  0.2400E-01  0.2400E-01
    -14.337  0.0000E+00  0.0000E+00  0.2400E-01  0.2400E-01
    -14.145  0.0000E+00  0.0000E+00  0.2400E-01  0.2400E-01
    -13.953  0.0000E+00  0.0000E+00  0.2400E-01  0.2400E-01
    -13.761  0.0000E+00  0.0000E+00  0.2400E-01  0.2400E-01
    -13.569  0.0000E+00  0.0000E+00  0.2400E-01  0.2400E-01
    -13.377  0.0000E+00  0.0000E+00  0.2400E-01  0.2400E-01
    -13.185  0.4311E-02  0.4311E-02  0.2483E-01  0.2483E-01
    -12.993  0.1652E-01  0.1652E-01  0.2800E-01  0.2800E-01
    -12.801  0.0000E+00  0.0000E+00  0.2800E-01  0.2800E-01
    -12.609  0.1213E-02  0.1213E-02  0.2823E-01  0.2823E-01
    -12.418  0.1752E-01  0.1752E-01  0.3160E-01  0.3160E-01
    -12.226  0.2099E-02  0.2099E-02  0.3200E-01  0.3200E-01
    -12.034  0.0000E+00  0.0000E+00  0.3200E-01  0.3200E-01
    -11.842  0.0000E+00  0.0000E+00  0.3200E-01  0.3200E-01
    -11.650  0.0000E+00  0.0000E+00  0.3200E-01  0.3200E-01
    -11.458  0.0000E+00  0.0000E+00  0.3200E-01  0.3200E-01
    -11.266  0.0000E+00  0.0000E+00  0.3200E-01  0.3200E-01
    -11.074  0.0000E+00  0.0000E+00  0.3200E-01  0.3200E-01
    -10.882  0.0000E+00  0.0000E+00  0.3200E-01  0.3200E-01
    -10.690  0.0000E+00  0.0000E+00  0.3200E-01  0.3200E-01
    -10.498  0.3952E-07  0.3952E-07  0.3200E-01  0.3200E-01
    -10.306  0.1566E-01  0.1566E-01  0.3501E-01  0.3501E-01
    -10.114  0.3011E-01  0.3011E-01  0.4079E-01  0.4079E-01
     -9.922  0.1670E-01  0.1670E-01  0.4400E-01  0.4400E-01
     -9.730  0.0000E+00  0.0000E+00  0.4400E-01  0.4400E-01
     -9.538  0.0000E+00  0.0000E+00  0.4400E-01  0.4400E-01
     -9.346  0.0000E+00  0.0000E+00  0.4400E-01  0.4400E-01
     -9.154  0.0000E+00  0.0000E+00  0.4400E-01  0.4400E-01
     -8.962  0.0000E+00  0.0000E+00  0.4400E-01  0.4400E-01
     -8.770  0.4213E-09  0.4213E-09  0.4400E-01  0.4400E-01
     -8.578  0.5208E-02  0.5208E-02  0.4500E-01  0.4500E-01
     -8.386  0.1457E-01  0.1457E-01  0.4780E-01  0.4780E-01
     -8.194  0.1055E-02  0.1055E-02  0.4800E-01  0.4800E-01
     -8.002  0.0000E+00  0.0000E+00  0.4800E-01  0.4800E-01
     -7.810  0.0000E+00  0.0000E+00  0.4800E-01  0.4800E-01
     -7.618  0.0000E+00  0.0000E+00  0.4800E-01  0.4800E-01
     -7.426  0.0000E+00  0.0000E+00  0.4800E-01  0.4800E-01
     -7.234  0.0000E+00  0.0000E+00  0.4800E-01  0.4800E-01
     -7.042  0.0000E+00  0.0000E+00  0.4800E-01  0.4800E-01
     -6.850  0.0000E+00  0.0000E+00  0.4800E-01  0.4800E-01
     -6.658  0.0000E+00  0.0000E+00  0.4800E-01  0.4800E-01
     -6.466  0.0000E+00  0.0000E+00  0.4800E-01  0.4800E-01
     -6.274  0.6972E-03  0.6972E-03  0.4813E-01  0.4813E-01
     -6.082  0.4511E-02  0.4511E-02  0.4900E-01  0.4900E-01
     -5.890  0.9224E-03  0.9224E-03  0.4918E-01  0.4918E-01
     -5.698  0.1470E-01  0.1470E-01  0.5200E-01  0.5200E-01
     -5.506  0.0000E+00  0.0000E+00  0.5200E-01  0.5200E-01
     -5.314  0.0000E+00  0.0000E+00  0.5200E-01  0.5200E-01
     -5.122  0.0000E+00  0.0000E+00  0.5200E-01  0.5200E-01
     -4.930  0.0000E+00  0.0000E+00  0.5200E-01  0.5200E-01
     -4.738  0.0000E+00  0.0000E+00  0.5200E-01  0.5200E-01
     -4.546  0.0000E+00  0.0000E+00  0.5200E-01  0.5200E-01
     -4.354  0.0000E+00  0.0000E+00  0.5200E-01  0.5200E-01
     -4.162  0.0000E+00  0.0000E+00  0.5200E-01  0.5200E-01
     -3.970  0.0000E+00  0.0000E+00  0.5200E-01  0.5200E-01
     -3.778  0.0000E+00  0.0000E+00  0.5200E-01  0.5200E-01
     -3.586  0.0000E+00  0.0000E+00  0.5200E-01  0.5200E-01
     -3.394  0.1040E-03  0.1040E-03  0.5202E-01  0.5202E-01
     -3.202  0.1552E-01  0.1552E-01  0.5500E-01  0.5500E-01
     -3.010  0.3807E-03  0.3807E-03  0.5507E-01  0.5507E-01
     -2.818  0.9009E-02  0.9009E-02  0.5680E-01  0.5680E-01
     -2.626  0.1558E-01  0.1558E-01  0.5979E-01  0.5979E-01
     -2.434  0.2019E-01  0.2019E-01  0.6367E-01  0.6367E-01
     -2.242  0.1719E-02  0.1719E-02  0.6400E-01  0.6400E-01
     -2.050  0.0000E+00  0.0000E+00  0.6400E-01  0.6400E-01
     -1.858  0.0000E+00  0.0000E+00  0.6400E-01  0.6400E-01
     -1.666  0.0000E+00  0.0000E+00  0.6400E-01  0.6400E-01
     -1.474  0.6357E-03  0.6357E-03  0.6412E-01  0.6412E-01
     -1.282  0.3365E-01  0.3365E-01  0.7058E-01  0.7058E-01
     -1.090  0.2018E-01  0.2018E-01  0.7446E-01  0.7446E-01
     -0.898  0.5996E-02  0.5996E-02  0.7562E-01  0.7562E-01
     -0.706  0.2032E-02  0.2032E-02  0.7601E-01  0.7601E-01
     -0.514  0.1538E-01  0.1538E-01  0.7896E-01  0.7896E-01
     -0.322  0.1061E-01  0.1061E-01  0.8100E-01  0.8100E-01
     -0.130  0.2266E-01  0.2266E-01  0.8535E-01  0.8535E-01
      0.062  0.2874E-01  0.2874E-01  0.9087E-01  0.9087E-01
      0.254  0.2415E-01  0.2415E-01  0.9551E-01  0.9551E-01
      0.446  0.2534E-02  0.2534E-02  0.9600E-01  0.9600E-01
      0.638  0.6123E-02  0.6123E-02  0.9718E-01  0.9718E-01
      0.830  0.2294E-01  0.2294E-01  0.1016E+00  0.1016E+00
      1.022  0.2256E-01  0.2256E-01  0.1059E+00  0.1059E+00
      1.213  0.2920E-01  0.2920E-01  0.1115E+00  0.1115E+00
      1.405  0.2844E-01  0.2844E-01  0.1170E+00  0.1170E+00
      1.597  0.1486E-01  0.1486E-01  0.1198E+00  0.1198E+00
      1.789  0.8508E-03  0.8508E-03  0.1200E+00  0.1200E+00
      1.981  0.0000E+00  0.0000E+00  0.1200E+00  0.1200E+00
      2.173  0.0000E+00  0.0000E+00  0.1200E+00  0.1200E+00
      2.365  0.0000E+00  0.0000E+00  0.1200E+00  0.1200E+00
      2.557  0.0000E+00  0.0000E+00  0.1200E+00  0.1200E+00
      2.749  0.0000E+00  0.0000E+00  0.1200E+00  0.1200E+00
      2.941  0.0000E+00  0.0000E+00  0.1200E+00  0.1200E+00
      3.133  0.0000E+00  0.0000E+00  0.1200E+00  0.1200E+00
      3.325  0.0000E+00  0.0000E+00  0.1200E+00  0.1200E+00
      3.517  0.0000E+00  0.0000E+00  0.1200E+00  0.1200E+00
      3.709  0.0000E+00  0.0000E+00  0.1200E+00  0.1200E+00
      3.901  0.0000E+00  0.0000E+00  0.1200E+00  0.1200E+00
      4.093  0.2675E-16  0.2675E-16  0.1200E+00  0.1200E+00
      4.285  0.3316E-02  0.3316E-02  0.1206E+00  0.1206E+00
      4.477  0.1893E-02  0.1893E-02  0.1210E+00  0.1210E+00
      4.669  0.0000E+00  0.0000E+00  0.1210E+00  0.1210E+00
      4.861  0.0000E+00  0.0000E+00  0.1210E+00  0.1210E+00
      5.053  0.1765E-03  0.1765E-03  0.1210E+00  0.1210E+00
      5.245  0.1539E-01  0.1539E-01  0.1240E+00  0.1240E+00
      5.437  0.6245E-04  0.6245E-04  0.1240E+00  0.1240E+00
      5.629  0.7871E-06  0.7871E-06  0.1240E+00  0.1240E+00
      5.821  0.6578E-02  0.6578E-02  0.1253E+00  0.1253E+00
      6.013  0.1839E-01  0.1839E-01  0.1288E+00  0.1288E+00
      6.205  0.6257E-02  0.6257E-02  0.1300E+00  0.1300E+00
      6.397  0.8424E-02  0.8424E-02  0.1316E+00  0.1316E+00
      6.589  0.8128E-02  0.8128E-02  0.1332E+00  0.1332E+00
      6.781  0.1447E-01  0.1447E-01  0.1360E+00  0.1360E+00
      6.973  0.5387E-02  0.5387E-02  0.1370E+00  0.1370E+00
      7.165  0.1027E-02  0.1027E-02  0.1372E+00  0.1372E+00
      7.357  0.9146E-02  0.9146E-02  0.1389E+00  0.1389E+00
      7.549  0.1098E-01  0.1098E-01  0.1411E+00  0.1411E+00
      7.741  0.1423E-01  0.1423E-01  0.1438E+00  0.1438E+00
      7.933  0.9174E-02  0.9174E-02  0.1455E+00  0.1455E+00
      8.125  0.1255E-01  0.1255E-01  0.1480E+00  0.1480E+00
      8.317  0.1455E-01  0.1455E-01  0.1508E+00  0.1508E+00
      8.509  0.1580E-01  0.1580E-01  0.1538E+00  0.1538E+00
      8.701  0.1574E-01  0.1574E-01  0.1568E+00  0.1568E+00
      8.893  0.1775E-01  0.1775E-01  0.1602E+00  0.1602E+00
      9.085  0.1832E-01  0.1832E-01  0.1637E+00  0.1637E+00
      9.277  0.2005E-01  0.2005E-01  0.1676E+00  0.1676E+00
      9.469  0.1758E-01  0.1758E-01  0.1710E+00  0.1710E+00
      9.661  0.1526E-01  0.1538E-01  0.1739E+00  0.1739E+00
      9.853  0.1093E-01  0.1082E-01  0.1760E+00  0.1760E+00
     10.045  0.0000E+00  0.0000E+00  0.1760E+00  0.1760E+00
     10.237  0.0000E+00  0.0000E+00  0.1760E+00  0.1760E+00
     10.429  0.0000E+00  0.0000E+00  0.1760E+00  0.1760E+00
     10.621  0.0000E+00  0.0000E+00  0.1760E+00  0.1760E+00
     10.813  0.0000E+00  0.0000E+00  0.1760E+00  0.1760E+00
     11.005  0.0000E+00  0.0000E+00  0.1760E+00  0.1760E+00
     11.197  0.0000E+00  0.0000E+00  0.1760E+00  0.1760E+00
     11.389  0.0000E+00  0.0000E+00  0.1760E+00  0.1760E+00
     11.581  0.0000E+00  0.0000E+00  0.1760E+00  0.1760E+00
     11.773  0.0000E+00  0.0000E+00  0.1760E+00  0.1760E+00
     11.965  0.0000E+00  0.0000E+00  0.1760E+00  0.1760E+00
     12.157  0.0000E+00  0.0000E+00  0.1760E+00  0.1760E+00
     12.349  0.0000E+00  0.0000E+00  0.1760E+00  0.1760E+00
