 vasp.6.4.1 05Apr23 (build Jun 07 2023 15:38:11) complex                        
  
 executed on             LinuxIFC date 2023.10.16  22:18:20
 running  128 mpi-ranks, with    1 threads/rank, on    1 nodes
 distrk:  each k-point on  128 cores,    1 groups
 distr:  one band on NCORE=  32 cores,    4 groups


--------------------------------------------------------------------------------------------------------


 INCAR:
   GGA = PE
   PREC = Accu
   EDIFF = 1.e-6
   EDIFFG = -1.e-3
   ENCUT = 520.
   NELM = 100
   NELMDL = -10
   LASPH = .TRUE.
   LREAL = Auto
   LMAXMIX = 4
   ISPIN = 2
   LDIAG = .TRUE.
   LPLANE = .TRUE.
   IVDW = 12
   SIGMA = 0.03
   ISMEAR = 0
   NSW = 1000    number of steps for IOM
   IBRION = 2    ionic relax: 0-MD 1-quasi-New 2-CG
   ISIF = 2    ionic relaxation + stress tensor calcn.
   LCHARG = .FALSE.
   LWAVE = .FALSE.
   ALGO = F
   KPAR = 1
   NPAR = 4
   POTIM = 0.2

 POTCAR:    PAW_PBE Li_sv_GW 25Mar2010            
 POTCAR:    PAW_PBE P_GW 19Mar2012                
 POTCAR:    PAW_PBE S_GW 19Mar2012                
 POTCAR:    PAW_PBE Cl_GW 19Mar2012               
 -----------------------------------------------------------------------------
|                                                                             |
|           W    W    AA    RRRRR   N    N  II  N    N   GGGG   !!!           |
|           W    W   A  A   R    R  NN   N  II  NN   N  G    G  !!!           |
|           W    W  A    A  R    R  N N  N  II  N N  N  G       !!!           |
|           W WW W  AAAAAA  RRRRR   N  N N  II  N  N N  G  GGG   !            |
|           WW  WW  A    A  R   R   N   NN  II  N   NN  G    G                |
|           W    W  A    A  R    R  N    N  II  N    N   GGGG   !!!           |
|                                                                             |
|     You use a magnetic or noncollinear calculation, but did not specify     |
|     the initial magnetic moment with the MAGMOM tag. Note that a            |
|     default of 1 will be used for all atoms. This ferromagnetic setup       |
|     may break the symmetry of the crystal, in particular it may rule        |
|     out finding an antiferromagnetic solution. Thence, we recommend         |
|     setting the initial magnetic moment manually or verifying carefully     |
|     that this magnetic setup is desired.                                    |
|                                                                             |
 -----------------------------------------------------------------------------

 POTCAR:    PAW_PBE Li_sv_GW 25Mar2010            
   SHA256 =  24a6ace15a582615486b36ce4dc781b048409f4015b7684ed1273ae395fa2fdc Li_sv_GW/POTCAR       
   COPYR  = (c) Copyright 25Mar2010 Georg Kresse                                                    
   COPYR  = This file is part of the software VASP. Any use, copying, and all other rights are regul
   COPYR  = If you do not have a valid VASP license, you may not use, copy or distribute this file. 
   VRHFIN =Li: 1s2s                                                                                 
   LEXCH  = PE                                                                                      
   EATOM  =   200.9989 eV,   14.7730 Ry                                                             
                                                                                                    
   TITEL  = PAW_PBE Li_sv_GW 25Mar2010                                                              
   LULTRA =        F    use ultrasoft PP ?                                                          
   IUNSCR =        0    unscreen: 0-lin 1-nonlin 2-no                                               
   RPACOR =    0.000    partial core radius                                                         
   POMASS =    7.010; ZVAL   =    3.000    mass and valenz                                          
   RCORE  =    1.500    outmost cutoff radius                                                       
   RWIGS  =    1.600; RWIGS  =    0.847    wigner-seitz radius (au A)                               
   ENMAX  =  433.699; ENMIN  =  325.274 eV                                                          
   RCLOC  =    1.003    cutoff for local pot                                                        
   LCOR   =        T    correct aug charges                                                         
   LPAW   =        T    paw PP                                                                      
   EAUG   = 1041.699                                                                                
   RMAX   =    1.536    core radius for proj-oper                                                   
   RAUG   =    1.300    factor for augmentation sphere                                              
   RDEP   =    1.520    radius for radial grids                                                     
   RDEPT  =    1.300    core radius for aug-charge                                                  
                                                                                                    
   Atomic configuration                                                                             
    4 entries                                                                                       
     n  l   j            E        occ.                                                              
     1  0  0.50       -53.3604   2.0000                                                             
     1  0  0.50       -52.0001   0.0000                                                             
     2  1  0.50        -1.5636   1.0000                                                             
     3  2  1.50        -1.3606   0.0000                                                             
   Description                                                                                      
     l       E           TYP  RCUT    TYP  RCUT                                                     
     0    -53.3603633     23  1.200                                                                 
     0    -52.0001064     23  1.200                                                                 
     0    176.8757380     23  1.300                                                                 
     1     -1.5635925     23  1.500                                                                 
     1    108.8466080     23  1.500                                                                 
     2     81.6349560     23  1.500                                                                 
  local pseudopotential read in
  kinetic energy density of atom read in
  atomic valenz-charges read in
  non local Contribution for L=           0  read in
    real space projection operators read in
  non local Contribution for L=           0  read in
    real space projection operators read in
  non local Contribution for L=           0  read in
    real space projection operators read in
  non local Contribution for L=           1  read in
    real space projection operators read in
  non local Contribution for L=           1  read in
    real space projection operators read in
  non local Contribution for L=           2  read in
    real space projection operators read in
    PAW grid and wavefunctions read in
 
   number of l-projection  operators is LMAX  =           6
   number of lm-projection operators is LMMAX =          14
 
 POTCAR:    PAW_PBE P_GW 19Mar2012                
   SHA256 =  715c28f2291d37b61637ce89646c59f66f71c8b8d8bfba631e5feb9f7b42defe P_GW/POTCAR           
   COPYR  = (c) Copyright 19Mar2012 Georg Kresse                                                    
   COPYR  = This file is part of the software VASP. Any use, copying, and all other rights are regul
   COPYR  = If you do not have a valid VASP license, you may not use, copy or distribute this file. 
   VRHFIN =P : s2p3                                                                                 
   LEXCH  = PE                                                                                      
   EATOM  =   176.0430 eV,   12.9388 Ry                                                             
                                                                                                    
   TITEL  = PAW_PBE P_GW 19Mar2012                                                                  
   LULTRA =        F    use ultrasoft PP ?                                                          
   IUNSCR =        1    unscreen: 0-lin 1-nonlin 2-no                                               
   RPACOR =    1.400    partial core radius                                                         
   POMASS =   30.974; ZVAL   =    5.000    mass and valenz                                          
   RCORE  =    2.000    outmost cutoff radius                                                       
   RWIGS  =    1.900; RWIGS  =    1.005    wigner-seitz radius (au A)                               
   ENMAX  =  255.040; ENMIN  =  191.280 eV                                                          
   ICORE  =        3    local potential                                                             
   LCOR   =        T    correct aug charges                                                         
   LPAW   =        T    paw PP                                                                      
   EAUG   =  499.732                                                                                
   DEXC   =    0.000                                                                                
   RMAX   =    2.047    core radius for proj-oper                                                   
   RAUG   =    1.300    factor for augmentation sphere                                              
   RDEP   =    2.059    radius for radial grids                                                     
   RDEPT  =    1.900    core radius for aug-charge                                                  
                                                                                                    
   Atomic configuration                                                                             
    7 entries                                                                                       
     n  l   j            E        occ.                                                              
     1  0  0.50     -2084.0982   2.0000                                                             
     2  0  0.50      -173.9859   2.0000                                                             
     2  1  1.50      -124.4865   6.0000                                                             
     3  0  0.50       -13.9692   2.0000                                                             
     3  1  0.50        -5.5067   3.0000                                                             
     3  2  1.50        -6.8029   0.0000                                                             
     4  3  2.50        -1.3606   0.0000                                                             
   Description                                                                                      
     l       E           TYP  RCUT    TYP  RCUT                                                     
     0    -13.9691528     23  1.900                                                                 
     0    102.0436950     23  1.900                                                                 
     1     -5.5066939     23  1.900                                                                 
     1    102.0436950     23  1.900                                                                 
     2     -8.1634956     23  2.000                                                                 
     2     81.6349560     23  2.000                                                                 
     3     27.2116520     23  2.000                                                                 
  local pseudopotential read in
  partial core-charges read in
  partial kinetic energy density read in
  kinetic energy density of atom read in
  atomic valenz-charges read in
  non local Contribution for L=           0  read in
    real space projection operators read in
  non local Contribution for L=           0  read in
    real space projection operators read in
  non local Contribution for L=           1  read in
    real space projection operators read in
  non local Contribution for L=           1  read in
    real space projection operators read in
  non local Contribution for L=           2  read in
    real space projection operators read in
  non local Contribution for L=           2  read in
    real space projection operators read in
    PAW grid and wavefunctions read in
 
   number of l-projection  operators is LMAX  =           6
   number of lm-projection operators is LMMAX =          18
 
 POTCAR:    PAW_PBE S_GW 19Mar2012                
   SHA256 =  357db9cfb0783579b2eebe03197c2d807131fea8ea663b1fcfb6ce2fa75af011 S_GW/POTCAR           
   COPYR  = (c) Copyright 19Mar2012 Georg Kresse                                                    
   COPYR  = This file is part of the software VASP. Any use, copying, and all other rights are regul
   COPYR  = If you do not have a valid VASP license, you may not use, copy or distribute this file. 
   VRHFIN =S : s2p4                                                                                 
   LEXCH  = PE                                                                                      
   EATOM  =   276.8230 eV,   20.3459 Ry                                                             
                                                                                                    
   TITEL  = PAW_PBE S_GW 19Mar2012                                                                  
   LULTRA =        F    use ultrasoft PP ?                                                          
   IUNSCR =        1    unscreen: 0-lin 1-nonlin 2-no                                               
   RPACOR =    1.400    partial core radius                                                         
   POMASS =   32.066; ZVAL   =    6.000    mass and valenz                                          
   RCORE  =    1.900    outmost cutoff radius                                                       
   RWIGS  =    1.900; RWIGS  =    1.005    wigner-seitz radius (au A)                               
   ENMAX  =  258.689; ENMIN  =  194.016 eV                                                          
   ICORE  =        3    local potential                                                             
   LCOR   =        T    correct aug charges                                                         
   LPAW   =        T    paw PP                                                                      
   EAUG   =  488.319                                                                                
   DEXC   =    0.000                                                                                
   RMAX   =    1.942    core radius for proj-oper                                                   
   RAUG   =    1.300    factor for augmentation sphere                                              
   RDEP   =    1.954    radius for radial grids                                                     
   RDEPT  =    1.900    core radius for aug-charge                                                  
                                                                                                    
   Atomic configuration                                                                             
    7 entries                                                                                       
     n  l   j            E        occ.                                                              
     1  0  0.50     -2405.8406   2.0000                                                             
     2  0  0.50      -211.7007   2.0000                                                             
     2  1  1.50      -156.4958   6.0000                                                             
     3  0  0.50       -17.2562   2.0000                                                             
     3  1  0.50        -7.0085   4.0000                                                             
     3  2  1.50        -8.1635   0.0000                                                             
     4  3  2.50        -1.3606   0.0000                                                             
   Description                                                                                      
     l       E           TYP  RCUT    TYP  RCUT                                                     
     0    -17.2561639     23  1.700                                                                 
     0     88.4378690     23  1.900                                                                 
     1     -7.0085399     23  1.900                                                                 
     1     88.4378690     23  1.900                                                                 
     2    -10.8846608     23  1.900                                                                 
     2     54.4233040     23  1.900                                                                 
     3     27.2116520     23  1.800                                                                 
  local pseudopotential read in
  partial core-charges read in
  partial kinetic energy density read in
  kinetic energy density of atom read in
  atomic valenz-charges read in
  non local Contribution for L=           0  read in
    real space projection operators read in
  non local Contribution for L=           0  read in
    real space projection operators read in
  non local Contribution for L=           1  read in
    real space projection operators read in
  non local Contribution for L=           1  read in
    real space projection operators read in
  non local Contribution for L=           2  read in
    real space projection operators read in
  non local Contribution for L=           2  read in
    real space projection operators read in
    PAW grid and wavefunctions read in
 
   number of l-projection  operators is LMAX  =           6
   number of lm-projection operators is LMMAX =          18
 
 POTCAR:    PAW_PBE Cl_GW 19Mar2012               
   SHA256 =  3ef3b3169d6a9a89979f58b4cf17d927a58518fc660d8883d88cacaee8175441 Cl_GW/POTCAR          
   COPYR  = (c) Copyright 19Mar2012 Georg Kresse                                                    
   COPYR  = This file is part of the software VASP. Any use, copying, and all other rights are regul
   COPYR  = If you do not have a valid VASP license, you may not use, copy or distribute this file. 
   VRHFIN =Cl: s2p5                                                                                 
   LEXCH  = PE                                                                                      
   EATOM  =   409.7259 eV,   30.1140 Ry                                                             
                                                                                                    
   TITEL  = PAW_PBE Cl_GW 19Mar2012                                                                 
   LULTRA =        F    use ultrasoft PP ?                                                          
   IUNSCR =        1    unscreen: 0-lin 1-nonlin 2-no                                               
   RPACOR =    1.400    partial core radius                                                         
   POMASS =   35.453; ZVAL   =    7.000    mass and valenz                                          
   RCORE  =    1.900    outmost cutoff radius                                                       
   RWIGS  =    1.900; RWIGS  =    1.005    wigner-seitz radius (au A)                               
   ENMAX  =  262.472; ENMIN  =  196.854 eV                                                          
   ICORE  =        3    local potential                                                             
   LCOR   =        T    correct aug charges                                                         
   LPAW   =        T    paw PP                                                                      
   EAUG   =  456.703                                                                                
   DEXC   =    0.000                                                                                
   RMAX   =    1.945    core radius for proj-oper                                                   
   RAUG   =    1.300    factor for augmentation sphere                                              
   RDEP   =    2.020    radius for radial grids                                                     
   RDEPT  =    1.900    core radius for aug-charge                                                  
                                                                                                    
   Atomic configuration                                                                             
    7 entries                                                                                       
     n  l   j            E        occ.                                                              
     1  0  0.50     -2751.1850   2.0000                                                             
     2  0  0.50      -252.6861   2.0000                                                             
     2  1  1.50      -191.6157   6.0000                                                             
     3  0  0.50       -20.6916   2.0000                                                             
     3  1  0.50        -8.5949   5.0000                                                             
     3  2  1.50        -9.5241   0.0000                                                             
     4  3  2.50        -9.5241   0.0000                                                             
   Description                                                                                      
     l       E           TYP  RCUT    TYP  RCUT                                                     
     0    -20.6915657     23  1.700                                                                 
     0     95.2407820     23  1.800                                                                 
     1     -8.5948577     23  1.900                                                                 
     1     95.2407820     23  1.900                                                                 
     2    -10.8846608     23  1.900                                                                 
     2     54.4233040     23  1.900                                                                 
     3     27.2116520     23  1.900                                                                 
  local pseudopotential read in
  partial core-charges read in
  partial kinetic energy density read in
  kinetic energy density of atom read in
  atomic valenz-charges read in
  non local Contribution for L=           0  read in
    real space projection operators read in
  non local Contribution for L=           0  read in
    real space projection operators read in
  non local Contribution for L=           1  read in
    real space projection operators read in
  non local Contribution for L=           1  read in
    real space projection operators read in
  non local Contribution for L=           2  read in
    real space projection operators read in
  non local Contribution for L=           2  read in
    real space projection operators read in
    PAW grid and wavefunctions read in
 
   number of l-projection  operators is LMAX  =           6
   number of lm-projection operators is LMMAX =          18
 
 Optimization of the real space projectors (new method)

 maximal supplied QI-value         = 25.13
 optimisation between [QCUT,QGAM] = [ 11.56, 23.12] = [ 37.43,149.72] Ry 
 Optimized for a Real-space Cutoff    1.28 Angstroem

   l    n(q)    QCUT    max X(q) W(low)/X(q) W(high)/X(q)  e(spline) 
   0      9    11.561    87.733    0.11E-03    0.32E-04    0.56E-06
   0      9    11.561    82.800    0.11E-03    0.35E-04    0.56E-06
   0      9    11.561     2.509    0.22E-03    0.42E-04    0.79E-06
   1      8    11.561    12.580    0.94E-04    0.26E-03    0.21E-06
   1      8    11.561     1.319    0.33E-04    0.15E-03    0.19E-06
   2      8    11.561     1.993    0.36E-04    0.89E-04    0.26E-06
 Optimization of the real space projectors (new method)

 maximal supplied QI-value         = 18.90
 optimisation between [QCUT,QGAM] = [ 11.53, 23.24] = [ 37.21,151.29] Ry 
 Optimized for a Real-space Cutoff    1.21 Angstroem

   l    n(q)    QCUT    max X(q) W(low)/X(q) W(high)/X(q)  e(spline) 
   0      8    11.527     8.355    0.73E-04    0.70E-04    0.26E-07
   0      8    11.527     1.401    0.17E-03    0.17E-03    0.63E-07
   1      8    11.527     4.747    0.13E-03    0.17E-03    0.11E-06
   1      8    11.527     2.025    0.16E-03    0.18E-03    0.12E-06
   2      7    11.527     3.169    0.51E-04    0.25E-03    0.60E-07
   2      7    11.527     3.441    0.82E-04    0.22E-03    0.14E-06
 Optimization of the real space projectors (new method)

 maximal supplied QI-value         = 19.84
 optimisation between [QCUT,QGAM] = [ 11.51, 23.22] = [ 37.09,150.92] Ry 
 Optimized for a Real-space Cutoff    1.49 Angstroem

   l    n(q)    QCUT    max X(q) W(low)/X(q) W(high)/X(q)  e(spline) 
   0     10    11.508     7.541    0.34E-04    0.13E-04    0.69E-07
   0     10    11.508     1.809    0.49E-04    0.27E-04    0.14E-06
   1     10    11.508     4.107    0.27E-05    0.41E-05    0.14E-06
   1     10    11.508     2.196    0.26E-05    0.25E-05    0.22E-06
   2      9    11.508     4.265    0.18E-03    0.11E-03    0.81E-06
   2      9    11.508     1.925    0.97E-04    0.76E-04    0.47E-06
 Optimization of the real space projectors (new method)

 maximal supplied QI-value         = 19.84
 optimisation between [QCUT,QGAM] = [ 11.51, 23.22] = [ 37.09,150.92] Ry 
 Optimized for a Real-space Cutoff    1.21 Angstroem

   l    n(q)    QCUT    max X(q) W(low)/X(q) W(high)/X(q)  e(spline) 
   0      8    11.508     6.761    0.57E-04    0.57E-04    0.35E-07
   0      8    11.508     1.642    0.14E-03    0.14E-03    0.91E-07
   1      8    11.508     3.519    0.20E-04    0.72E-04    0.47E-07
   1      8    11.508     2.150    0.27E-04    0.11E-03    0.89E-07
   2      7    11.508     2.976    0.19E-03    0.33E-03    0.16E-06
   2      7    11.508     1.494    0.14E-03    0.29E-03    0.14E-06
  PAW_PBE Li_sv_GW 25Mar2010            :
 energy of atom  1       EATOM= -200.9989
 kinetic energy error for atom=    0.0127 (will be added to EATOM!!)
  PAW_PBE P_GW 19Mar2012                :
 energy of atom  2       EATOM= -176.0430
 kinetic energy error for atom=    0.0011 (will be added to EATOM!!)
  PAW_PBE S_GW 19Mar2012                :
 energy of atom  3       EATOM= -276.8230
 kinetic energy error for atom=    0.0024 (will be added to EATOM!!)
  PAW_PBE Cl_GW 19Mar2012               :
 energy of atom  4       EATOM= -409.7259
 kinetic energy error for atom=    0.0030 (will be added to EATOM!!)
 
 
 POSCAR: Li24 P4 S20 Cl4
  positions in direct lattice
  velocities in cartesian coordinates
 exchange correlation table for  LEXCH =        8
   RHO(1)=    0.500       N(1)  =     2000
   RHO(2)=  100.500       N(2)  =     4000

 VTST: version 4.1, (05/19/21)

 CHAIN: initializing optimizer
 
 OPT: Using VASP Conjugate-Gradient optimizer
 CHAIN: Read ICHAIN            0
 
 POSCAR: Li24 P4 S20 Cl4
  positions in direct lattice
  velocities in cartesian coordinates
 


--------------------------------------------------------------------------------------------------------


 ion  position               nearest neighbor table
   1  0.971  0.268  0.232-
   2  0.984  0.768  0.732-
   3  0.025  0.189  0.837-
   4  0.025  0.663  0.311-
   5  0.337  0.300  0.968-
   6  0.217  0.776  0.028-
   7  0.686  0.299  0.014-
   8  0.825  0.815  0.975-
   9  0.180  0.972  0.203-
  10  0.224  0.011  0.810-
  11  0.701  0.975  0.708-
  12  0.789  0.025  0.227-
  13  0.224  0.690  0.488-
  14  0.180  0.297  0.528-
  15  0.701  0.792  0.525-
  16  0.789  0.273  0.475-
  17  0.217  0.472  0.724-
  18  0.337  0.531  0.200-
  19  0.686  0.486  0.201-
  20  0.825  0.525  0.685-
  21  0.466  0.178  0.674-
  22  0.466  0.826  0.322-
  23  0.523  0.176  0.324-
  24  0.548  0.656  0.844-
  25  0.504  0.494  0.511-  43 2.05  42 2.05  44 2.05  41 2.06
  26  0.504  0.989  0.006-  40 2.05  38 2.05  39 2.05  37 2.06
  27  0.003  0.501  0.999-  33 2.05  34 2.05  35 2.05  36 2.05
  28  0.009  0.998  0.502-  29 2.05  32 2.05  31 2.05  30 2.06
  29  0.152  0.888  0.612-  28 2.05
  30  0.113  0.129  0.371-  28 2.06
  31  0.892  0.867  0.385-  28 2.05
  32  0.892  0.115  0.632-  28 2.05
  33  0.879  0.620  0.122-  27 2.05
  34  0.879  0.378  0.880-  27 2.05
  35  0.119  0.626  0.874-  27 2.05
  36  0.139  0.386  0.114-  27 2.05
  37  0.613  0.117  0.879-  26 2.06
  38  0.631  0.871  0.127-  26 2.05
  39  0.378  0.107  0.128-  26 2.05
  40  0.395  0.857  0.883-  26 2.05
  41  0.613  0.621  0.382-  25 2.06
  42  0.631  0.373  0.629-  25 2.05
  43  0.395  0.617  0.643-  25 2.05
  44  0.378  0.372  0.393-  25 2.05
  45  0.755  0.746  0.753-
  46  0.740  0.254  0.245-
  47  0.248  0.746  0.259-
  48  0.248  0.241  0.754-
  49  0.030  0.979  0.992-
  50  0.030  0.508  0.520-
  51  0.540  0.996  0.504-
  52  0.508  0.480  0.020-
 
  LATTYP: Found a simple cubic cell.
 ALAT       =     9.7155388862
  
  Lattice vectors:
  
 A1 = (   9.7155388862,   0.0000000000,   0.0000000000)
 A2 = (   0.0000000000,   9.7155388862,   0.0000000000)
 A3 = (   0.0000000000,   0.0000000000,   9.7155388862)


Analysis of symmetry for initial positions (statically):
=====================================================================
 Subroutine PRICEL returns:
 Original cell was already a primitive cell.
 

 Routine SETGRP: Setting up the symmetry group for a 
 simple cubic supercell.


 Subroutine GETGRP returns: Found  2 space group operations
 (whereof  1 operations were pure point group operations)
 out of a pool of 48 trial point group operations.


The static configuration has the point symmetry C_1 .
 The point group associated with its full space group is C_1h.


Analysis of symmetry for dynamics (positions and initial velocities):
=====================================================================
 Subroutine PRICEL returns:
 Original cell was already a primitive cell.
 

 Routine SETGRP: Setting up the symmetry group for a 
 simple cubic supercell.


 Subroutine GETGRP returns: Found  2 space group operations
 (whereof  1 operations were pure point group operations)
 out of a pool of 48 trial point group operations.


The dynamic configuration has the point symmetry C_1 .
 The point group associated with its full space group is C_1h.


Analysis of structural, dynamic, and magnetic symmetry:
=====================================================================
 Subroutine PRICEL returns:
 Original cell was already a primitive cell.
 

 Routine SETGRP: Setting up the symmetry group for a 
 simple cubic supercell.


 Subroutine GETGRP returns: Found  2 space group operations
 (whereof  1 operations were pure point group operations)
 out of a pool of 48 trial point group operations.


The overall configuration has the point symmetry C_1 .
 The point group associated with its full space group is C_1h.


 Subroutine INISYM returns: Found  2 space group operations
 (whereof  1 operations are pure point group operations),
 and found     1 'primitive' translations


----------------------------------------------------------------------------------------

                                     Primitive cell                                     

  volume of cell :     917.0662

  direct lattice vectors                    reciprocal lattice vectors
     9.715538886  0.000000000  0.000000000     0.102927898  0.000000000  0.000000000
     0.000000000  9.715538886  0.000000000     0.000000000  0.102927898  0.000000000
     0.000000000  0.000000000  9.715538886     0.000000000  0.000000000  0.102927898

  length of vectors
     9.715538886  9.715538886  9.715538886     0.102927898  0.102927898  0.102927898

  position of ions in fractional coordinates (direct lattice)
     0.971140400  0.267873292  0.231992302
     0.984483516  0.767988807  0.731876787
     0.024933984  0.189186543  0.836894024
     0.024933984  0.662971570  0.310679050
     0.337098016  0.300189980  0.968477680
     0.217013713  0.775762906  0.028080575
     0.685531356  0.299248276  0.014188824
     0.825100362  0.814923514  0.975154426
     0.179840453  0.971669171  0.202526103
     0.223726223  0.011435883  0.809652106
     0.701220931  0.974953220  0.707987430
     0.788797079  0.024658454  0.226849449
     0.223726223  0.690213488  0.488429711
     0.179840453  0.297339491  0.528196423
     0.701220931  0.791878164  0.524912374
     0.788797079  0.273016145  0.475207140
     0.217013713  0.471785019  0.724102688
     0.337098016  0.531387914  0.199675614
     0.685531356  0.485676770  0.200617318
     0.825100362  0.524711168  0.684942080
     0.466151194  0.178215448  0.673789330
     0.466151194  0.826076263  0.321650146
     0.523153487  0.175883169  0.323982425
     0.548483280  0.655840234  0.844025360
     0.503737957  0.493736889  0.511334405
     0.503737957  0.988531189  0.006128705
     0.002863182  0.500767129  0.999098465
     0.009489608  0.998221951  0.501643643
     0.151651988  0.888221961  0.611643633
     0.112604679  0.129066275  0.370799319
     0.891510419  0.867483396  0.384668702
     0.891510419  0.115196892  0.632382198
     0.879456744  0.619500942  0.122343533
     0.879456744  0.377522061  0.880364651
     0.118565911  0.625657055  0.874208539
     0.138816673  0.386191838  0.113673756
     0.613299498  0.117430783  0.878653163
     0.630655978  0.870512893  0.127254888
     0.377841786  0.106912910  0.128076555
     0.394678630  0.857358887  0.882629123
     0.613299498  0.621212431  0.382434811
     0.630655978  0.372610706  0.629352700
     0.394678630  0.617236470  0.642506707
     0.377841786  0.371789039  0.392952683
     0.754676685  0.746496501  0.753369093
     0.739710803  0.254491251  0.245374343
     0.247586809  0.746358861  0.258970274
     0.247586809  0.240895320  0.753506733
     0.029991358  0.979366133  0.991643028
     0.029991358  0.508222566  0.520499461
     0.539590811  0.995990125  0.503875469
     0.508270615  0.479531098  0.020334496

  ion indices of the primitive-cell ions
   primitive index   ion index
                 1           1
                 2           2
                 3           3
                 4           4
                 5           5
                 6           6
                 7           7
                 8           8
                 9           9
                10          10
                11          11
                12          12
                13          13
                14          14
                15          15
                16          16
                17          17
                18          18
                19          19
                20          20
                21          21
                22          22
                23          23
                24          24
                25          25
                26          26
                27          27
                28          28
                29          29
                30          30
                31          31
                32          32
                33          33
                34          34
                35          35
                36          36
                37          37
                38          38
                39          39
                40          40
                41          41
                42          42
                43          43
                44          44
                45          45
                46          46
                47          47
                48          48
                49          49
                50          50
                51          51
                52          52

----------------------------------------------------------------------------------------

 
 
 KPOINTS: Automatic mesh                          

Automatic generation of k-mesh.
 Grid dimensions read from file:
 generate k-points for:    2    2    2

 Generating k-lattice:

  Cartesian coordinates                     Fractional coordinates (reciprocal lattice)
     0.051463949  0.000000000  0.000000000     0.500000000  0.000000000  0.000000000
     0.000000000  0.051463949  0.000000000     0.000000000  0.500000000  0.000000000
     0.000000000  0.000000000  0.051463949     0.000000000  0.000000000  0.500000000

  Length of vectors
     0.051463949  0.051463949  0.051463949

  Shift w.r.t. Gamma in fractional coordinates (k-lattice)
     0.500000000  0.500000000  0.500000000

 
 Subroutine IBZKPT returns following result:
 ===========================================
 
 Found      3 irreducible k-points:
 
 Following reciprocal coordinates:
            Coordinates               Weight
  0.250000  0.250000  0.250000      4.000000
 -0.250000 -0.250000  0.250000      2.000000
  0.250000 -0.250000  0.250000      2.000000
 
 Following cartesian coordinates:
            Coordinates               Weight
  0.025732  0.025732  0.025732      4.000000
 -0.025732 -0.025732  0.025732      2.000000
  0.025732 -0.025732  0.025732      2.000000
 


--------------------------------------------------------------------------------------------------------




 Dimension of arrays:
   k-points           NKPTS =      3   k-points in BZ     NKDIM =      3   number of bands    NBANDS=    176
   number of dos      NEDOS =    301   number of ions     NIONS =     52
   non local maximal  LDIM  =      6   non local SUM 2l+1 LMDIM =     18
   total plane-waves  NPLWV = 373248
   max r-space proj   IRMAX =   5679   max aug-charges    IRDMAX=  17375
   dimension x,y,z NGX =    72 NGY =   72 NGZ =   72
   dimension x,y,z NGXF=   144 NGYF=  144 NGZF=  144
   support grid    NGXF=   144 NGYF=  144 NGZF=  144
   ions per type =              24   4  20   4
   NGX,Y,Z   is equivalent  to a cutoff of  12.32, 12.32, 12.32 a.u.
   NGXF,Y,Z  is equivalent  to a cutoff of  24.64, 24.64, 24.64 a.u.

 SYSTEM =  unknown system                          
 POSCAR =  Li24 P4 S20 Cl4                         

 Startparameter for this run:
   NWRITE =      2    write-flag & timer
   PREC   = accu      normal or accurate (medium, high low for compatibility)
   ISTART =      0    job   : 0-new  1-cont  2-samecut
   ICHARG =      2    charge: 1-file 2-atom 10-const
   ISPIN  =      2    spin polarized calculation?
   LNONCOLLINEAR =      F non collinear calculations
   LSORBIT =      F    spin-orbit coupling
   INIWAV =      1    electr: 0-lowe 1-rand  2-diag
   LASPH  =      T    aspherical Exc in radial PAW
 Electronic Relaxation 1
   ENCUT  =  520.0 eV  38.22 Ry    6.18 a.u.  18.06 18.06 18.06*2*pi/ulx,y,z
   ENINI  =  520.0     initial cutoff
   ENAUG  = 1041.7 eV  augmentation charge cutoff
   NELM   =    100;   NELMIN=  2; NELMDL=-10     # of ELM steps 
   EDIFF  = 0.1E-05   stopping-criterion for ELM
   LREAL  =      T    real-space projection
   NLSPLINE    = F    spline interpolate recip. space projectors
   LCOMPAT=      F    compatible to vasp.4.4
   GGA_COMPAT  = T    GGA compatible to vasp.4.4-vasp.4.6
   LMAXPAW     = -100 max onsite density
   LMAXMIX     =    4 max onsite mixed and CHGCAR
   VOSKOWN=      0    Vosko Wilk Nusair interpolation
   ROPT   =   -0.00025  -0.00025  -0.00025  -0.00025
 Ionic relaxation
   EDIFFG = -.1E-02   stopping-criterion for IOM
   NSW    =   1000    number of steps for IOM
   NBLOCK =      1;   KBLOCK =   1000    inner block; outer block 
   IBRION =      2    ionic relax: 0-MD 1-quasi-New 2-CG
   NFREE  =      1    steps in history (QN), initial steepest desc. (CG)
   ISIF   =      2    stress and relaxation
   IWAVPR =     11    prediction:  0-non 1-charg 2-wave 3-comb
   ISYM   =      2    0-nonsym 1-usesym 2-fastsym
   LCORR  =      T    Harris-Foulkes like correction to forces

   POTIM  = 0.2000    time-step for ionic-motion
   TEIN   =    0.0    initial temperature
   TEBEG  =    0.0;   TEEND  =   0.0 temperature during run
   SMASS  =  -3.00    Nose mass-parameter (am)
   estimated Nose-frequenzy (Omega)   =  0.10E-29 period in steps = 0.31E+47 mass=  -0.216E-26a.u.
   SCALEE = 1.0000    scale energy and forces
   NPACO  =    256;   APACO  = 10.0  distance and # of slots for P.C.
   PSTRESS=    0.0 pullay stress

  Mass of Ions in am
   POMASS =   7.01 30.97 32.07 35.45
  Ionic Valenz
   ZVAL   =   3.00  5.00  6.00  7.00
  Atomic Wigner-Seitz radii
   RWIGS  =  -1.00 -1.00 -1.00 -1.00
  virtual crystal weights 
   VCA    =   1.00  1.00  1.00  1.00
   NELECT =     240.0000    total number of electrons
   NUPDOWN=      -1.0000    fix difference up-down

 DOS related values:
   EMIN   =  10.00;   EMAX   =-10.00  energy-range for DOS
   EFERMI =   0.00;   METHOD = LEGACY      
   ISMEAR =     0;   SIGMA  =   0.03  broadening in eV -4-tet -1-fermi 0-gaus

 Electronic relaxation 2 (details)
   IALGO  =     68    algorithm
   LDIAG  =      T    sub-space diagonalisation (order eigenvalues)
   LSUBROT=      F    optimize rotation matrix (better conditioning)
   TURBO    =      0    0=normal 1=particle mesh
   IRESTART =      0    0=no restart 2=restart with 2 vectors
   NREBOOT  =      0    no. of reboots
   NMIN     =      0    reboot dimension
   EREF     =   0.00    reference energy to select bands
   IMIX   =      4    mixing-type and parameters
     AMIX     =   0.40;   BMIX     =  1.00
     AMIX_MAG =   1.60;   BMIX_MAG =  1.00
     AMIN     =   0.10
     WC   =   100.;   INIMIX=   1;  MIXPRE=   1;  MAXMIX= -45

 Intra band minimization:
   WEIMIN = 0.0010     energy-eigenvalue tresh-hold
   EBREAK =  0.14E-08  absolut break condition
   DEPER  =   0.30     relativ break condition  

   TIME   =   0.40     timestep for ELM

  volume/ion in A,a.u.               =      17.64       119.01
  Fermi-wavevector in a.u.,A,eV,Ry     =   1.047157  1.978839 14.919294  1.096537
  Thomas-Fermi vector in A             =   2.182025
 
 Write flags
   LWAVE        =      F    write WAVECAR
   LDOWNSAMPLE  =      F    k-point downsampling of WAVECAR
   LCHARG       =      F    write CHGCAR
   LVTOT        =      F    write LOCPOT, total local potential
   LVHAR        =      F    write LOCPOT, Hartree potential only
   LELF         =      F    write electronic localiz. function (ELF)
   LORBIT       =      0    0 simple, 1 ext, 2 COOP (PROOUT), +10 PAW based schemes


 Dipole corrections
   LMONO  =      F    monopole corrections only (constant potential shift)
   LDIPOL =      F    correct potential (dipole corrections)
   IDIPOL =      0    1-x, 2-y, 3-z, 4-all directions 
   EPSILON=  1.0000000 bulk dielectric constant

 Exchange correlation treatment:
   GGA     =    PE    GGA type
   LEXCH   =     8    internal setting for exchange type
   LIBXC   =     F    Libxc                    
   VOSKOWN =     0    Vosko Wilk Nusair interpolation
   LHFCALC =     F    Hartree Fock is set to
   LHFONE  =     F    Hartree Fock one center treatment
   AEXX    =    0.0000 exact exchange contribution

 Linear response parameters
   LEPSILON=     F    determine dielectric tensor
   LRPA    =     F    only Hartree local field effects (RPA)
   LNABLA  =     F    use nabla operator in PAW spheres
   LVEL    =     F    velocity operator in full k-point grid
   CSHIFT  =0.1000    complex shift for real part using Kramers Kronig
   OMEGAMAX=  -1.0    maximum frequency
   DEG_THRESHOLD= 0.2000000E-02 threshold for treating states as degnerate
   RTIME   =   -0.100 relaxation time in fs
  (WPLASMAI=    0.000 imaginary part of plasma frequency in eV, 0.658/RTIME)
   DFIELD  = 0.0000000 0.0000000 0.0000000 field for delta impulse in time
 
  Optional k-point grid parameters
   LKPOINTS_OPT  =     F    use optional k-point grid
   KPOINTS_OPT_MODE=     1    mode for optional k-point grid
 
 Orbital magnetization related:
   ORBITALMAG=     F  switch on orbital magnetization
   LCHIMAG   =     F  perturbation theory with respect to B field
   DQ        =  0.001000  dq finite difference perturbation B field
   LLRAUG    =     F  two centre corrections for induced B field
   LBONE     =     F  B-component reconstruction in AE one-centre
   LVGVCALC  =     T  calculate vGv susceptibility
   LVGVAPPL  =     F  apply vGv susceptibility instead of pGv for G=0

 Random number generation:
   RANDOM_GENERATOR = DEFAULT
   PCG_SEED         = not used


--------------------------------------------------------------------------------------------------------


 conjugate gradient relaxation of ions
 charge density and potential will be updated during run
 spin polarized calculation
 RMM-DIIS sequential band-by-band and
  variant of blocked Davidson during initial phase
 perform sub-space diagonalisation
    before iterative eigenvector-optimisation
 modified Broyden-mixing scheme, WC =      100.0
 initial mixing is a Kerker type mixing with AMIX =  0.4000 and BMIX =      1.0000
 Hartree-type preconditioning will be used
 using additional bands           56
 real space projection scheme for non local part
 use partial core corrections
 calculate Harris-corrections to forces 
   (improved forces if not selfconsistent)
 use gradient corrections 
 use of overlap-Matrix (Vanderbilt PP)
 Gauss-broadening in eV      SIGMA  =   0.03


--------------------------------------------------------------------------------------------------------


  energy-cutoff  :      520.00
  volume of cell :      917.07
      direct lattice vectors                 reciprocal lattice vectors
     9.715538886  0.000000000  0.000000000     0.102927898  0.000000000  0.000000000
     0.000000000  9.715538886  0.000000000     0.000000000  0.102927898  0.000000000
     0.000000000  0.000000000  9.715538886     0.000000000  0.000000000  0.102927898

  length of vectors
     9.715538886  9.715538886  9.715538886     0.102927898  0.102927898  0.102927898


 
 k-points in units of 2pi/SCALE and weight: Automatic mesh                          
   0.02573197  0.02573197  0.02573197       0.500
  -0.02573197 -0.02573197  0.02573197       0.250
   0.02573197 -0.02573197  0.02573197       0.250
 
 k-points in reciprocal lattice and weights: Automatic mesh                          
   0.25000000  0.25000000  0.25000000       0.500
  -0.25000000 -0.25000000  0.25000000       0.250
   0.25000000 -0.25000000  0.25000000       0.250
 
 position of ions in fractional coordinates (direct lattice) 
   0.97114040  0.26787329  0.23199230
   0.98448352  0.76798881  0.73187679
   0.02493398  0.18918654  0.83689402
   0.02493398  0.66297157  0.31067905
   0.33709802  0.30018998  0.96847768
   0.21701371  0.77576291  0.02808057
   0.68553136  0.29924828  0.01418882
   0.82510036  0.81492351  0.97515443
   0.17984045  0.97166917  0.20252610
   0.22372622  0.01143588  0.80965211
   0.70122093  0.97495322  0.70798743
   0.78879708  0.02465845  0.22684945
   0.22372622  0.69021349  0.48842971
   0.17984045  0.29733949  0.52819642
   0.70122093  0.79187816  0.52491237
   0.78879708  0.27301615  0.47520714
   0.21701371  0.47178502  0.72410269
   0.33709802  0.53138791  0.19967561
   0.68553136  0.48567677  0.20061732
   0.82510036  0.52471117  0.68494208
   0.46615119  0.17821545  0.67378933
   0.46615119  0.82607626  0.32165015
   0.52315349  0.17588317  0.32398243
   0.54848328  0.65584023  0.84402536
   0.50373796  0.49373689  0.51133441
   0.50373796  0.98853119  0.00612870
   0.00286318  0.50076713  0.99909846
   0.00948961  0.99822195  0.50164364
   0.15165199  0.88822196  0.61164363
   0.11260468  0.12906627  0.37079932
   0.89151042  0.86748340  0.38466870
   0.89151042  0.11519689  0.63238220
   0.87945674  0.61950094  0.12234353
   0.87945674  0.37752206  0.88036465
   0.11856591  0.62565705  0.87420854
   0.13881667  0.38619184  0.11367376
   0.61329950  0.11743078  0.87865316
   0.63065598  0.87051289  0.12725489
   0.37784179  0.10691291  0.12807656
   0.39467863  0.85735889  0.88262912
   0.61329950  0.62121243  0.38243481
   0.63065598  0.37261071  0.62935270
   0.39467863  0.61723647  0.64250671
   0.37784179  0.37178904  0.39295268
   0.75467669  0.74649650  0.75336909
   0.73971080  0.25449125  0.24537434
   0.24758681  0.74635886  0.25897027
   0.24758681  0.24089532  0.75350673
   0.02999136  0.97936613  0.99164303
   0.02999136  0.50822257  0.52049946
   0.53959081  0.99599012  0.50387547
   0.50827061  0.47953110  0.02033450
 
 position of ions in cartesian coordinates  (Angst):
   9.43515232  2.60253338  2.25393023
   9.56478788  7.46142512  7.11057738
   0.24224709  1.83804922  8.13087644
   0.24224709  6.44112607  3.01841440
   3.27508889  2.91650742  9.40928256
   2.10840516  7.53695468  0.27281791
   6.66030655  2.90735826  0.13785207
   8.01629466  7.91742109  9.47415074
   1.74724691  9.44028961  1.96765023
   2.17362082  0.11110577  7.86620652
   6.81273922  9.47219592  6.87847940
   7.66358870  0.23957017  2.20396464
   2.17362082  6.70579599  4.74535785
   1.74724691  2.88881338  5.13171289
   6.81273922  7.69352310  5.09980658
   7.66358870  2.65249897  4.61689344
   2.10840516  4.58364570  7.03504783
   3.27508889  5.16271994  1.93995619
   6.66030655  4.71861155  1.94910535
   8.01629466  5.09785176  6.65458142
   4.52891005  1.73145911  6.54622644
   4.52891005  8.02577606  3.12500450
   5.08271805  1.70879977  3.14766385
   5.32881063  6.37184129  8.20016121
   4.89408571  4.79691995  4.96788930
   4.89408571  9.60411320  0.05954367
   0.02781735  4.86522251  9.70677999
   0.09219666  9.69826418  4.87373832
   1.47338079  8.62955500  5.94244750
   1.09401513  1.25394841  3.60251521
   8.66150415  8.42806867  3.73726373
   8.66150415  1.11919989  6.14393383
   8.54439619  6.01878550  1.18863335
   8.54439619  3.66783026  8.55321700
   1.15193171  6.07859544  8.49340706
   1.34867878  3.75206182  1.10440180
   5.95853512  1.14090334  8.53658897
   6.12716268  8.45750187  1.23634981
   3.67093657  1.03871654  1.24433275
   3.83451557  8.32970361  8.57521757
   5.95853512  6.03541353  3.71556027
   6.12716268  3.62011381  6.11450063
   3.83451557  5.99678493  6.24229889
   3.67093657  3.61213086  3.81774708
   7.33209068  7.25261578  7.31938672
   7.18668907  2.47251965  2.38394397
   2.40543927  7.25127854  2.51603577
   2.40543927  2.34042784  7.32072396
   0.29138221  9.51506975  9.63434640
   0.29138221  4.93765610  5.05693276
   5.24241551  9.67658079  4.89542171
   4.93812292  4.65890303  0.19756059
 


--------------------------------------------------------------------------------------------------------


 k-point   1 :   0.2500 0.2500 0.2500  plane waves:   24717
 k-point   2 :  -0.2500-0.2500 0.2500  plane waves:   24717
 k-point   3 :   0.2500-0.2500 0.2500  plane waves:   24717

 maximum and minimum number of plane-waves per node :       785      758

 maximum number of plane-waves:     24717
 maximum index in each direction: 
   IXMAX=   18   IYMAX=   18   IZMAX=   17
   IXMIN=  -18   IYMIN=  -18   IZMIN=  -18


 real space projection operators:
  total allocation   :      27883.55 KBytes
  max/ min on nodes  :       1176.02        702.53


 parallel 3D FFT for wavefunctions:
    minimum data exchange during FFTs selected (reduces bandwidth)
 parallel 3D FFT for charge:
    minimum data exchange during FFTs selected (reduces bandwidth)


 total amount of memory used by VASP MPI-rank0    46921. kBytes
=======================================================================

   base      :      30000. kBytes
   nonlr-proj:       6388. kBytes
   fftplans  :       1747. kBytes
   grid      :       5278. kBytes
   one-center:         62. kBytes
   wavefun   :       3446. kBytes
 
     INWAV:  cpu time      0.0000: real time      0.0000
 Broyden mixing: mesh for mixing (old mesh)
   NGX = 37   NGY = 37   NGZ = 37
  (NGX  =144   NGY  =144   NGZ  =144)
  gives a total of  50653 points

 initial charge density was supplied:
 charge density of overlapping atoms calculated
 number of electron     240.0000000 magnetization      52.0000000
 keeping initial charge density in first step


--------------------------------------------------------------------------------------------------------


 Maximum index for non-local projection operator          562
 Maximum index for augmentation-charges          739 (set IRDMAX)


--------------------------------------------------------------------------------------------------------


 First call to EWALD:  gamma=   0.182
 Maximum number of real-space cells 3x 3x 3
 Maximum number of reciprocal cells 3x 3x 3

    FEWALD:  cpu time      0.0037: real time      0.0040


--------------------------------------- Ionic step        1  -------------------------------------------




--------------------------------------- Iteration      1(   1)  ---------------------------------------


    POTLOK:  cpu time      0.0570: real time      0.0770
    SETDIJ:  cpu time      0.4020: real time      0.4090
     EDDAV:  cpu time      1.6718: real time      1.8069
       DOS:  cpu time      0.0028: real time      0.0041
    --------------------------------------------
      LOOP:  cpu time      2.1336: real time      2.2970

 eigenvalue-minimisations  :  2328
 total energy-change (2. order) : 0.1578186E+04  (-0.1134496E+05)
 number of electron     240.0000000 magnetization      52.0000000
 augmentation part      240.0000000 magnetization      52.0000000

 Free energy of the ion-electron system (eV)
  ---------------------------------------------------
  alpha Z        PSCENC =       296.00644553
  Ewald energy   TEWEN  =     -8730.31230384
  -Hartree energ DENC   =     -2157.26548464
  -exchange      EXHF   =         0.00000000
  -V(xc)+E(xc)   XCENC  =       533.47383465
  PAW double counting   =      8141.38806575    -8271.61346273
  entropy T*S    EENTRO =        -0.00823716
  eigenvalues    EBANDS =      -936.62246542
  atomic energy  EATOM  =     12703.13999606
  Solvation  Ediel_sol  =         0.00000000
  ---------------------------------------------------
  free energy    TOTEN  =      1578.18638820 eV

  energy without entropy =     1578.19462536  energy(sigma->0) =     1578.19050678


--------------------------------------------------------------------------------------------------------




--------------------------------------- Iteration      1(   2)  ---------------------------------------


     EDDAV:  cpu time      1.9739: real time      1.9969
       DOS:  cpu time      0.0004: real time      0.0004
    --------------------------------------------
      LOOP:  cpu time      1.9743: real time      1.9973

 eigenvalue-minimisations  :  2880
 total energy-change (2. order) :-0.1634782E+04  (-0.1537171E+04)
 number of electron     240.0000000 magnetization      52.0000000
 augmentation part      240.0000000 magnetization      52.0000000

 Free energy of the ion-electron system (eV)
  ---------------------------------------------------
  alpha Z        PSCENC =       296.00644553
  Ewald energy   TEWEN  =     -8730.31230384
  -Hartree energ DENC   =     -2157.26548464
  -exchange      EXHF   =         0.00000000
  -V(xc)+E(xc)   XCENC  =       533.47383465
  PAW double counting   =      8141.38806575    -8271.61346273
  entropy T*S    EENTRO =        -0.00000000
  eigenvalues    EBANDS =     -2571.41289906
  atomic energy  EATOM  =     12703.13999606
  Solvation  Ediel_sol  =         0.00000000
  ---------------------------------------------------
  free energy    TOTEN  =       -56.59580828 eV

  energy without entropy =      -56.59580828  energy(sigma->0) =      -56.59580828


--------------------------------------------------------------------------------------------------------




--------------------------------------- Iteration      1(   3)  ---------------------------------------


     EDDAV:  cpu time      1.9939: real time      2.0163
       DOS:  cpu time      0.0004: real time      0.0003
    --------------------------------------------
      LOOP:  cpu time      1.9942: real time      2.0166

 eigenvalue-minimisations  :  2928
 total energy-change (2. order) :-0.1734384E+03  (-0.1715308E+03)
 number of electron     240.0000000 magnetization      52.0000000
 augmentation part      240.0000000 magnetization      52.0000000

 Free energy of the ion-electron system (eV)
  ---------------------------------------------------
  alpha Z        PSCENC =       296.00644553
  Ewald energy   TEWEN  =     -8730.31230384
  -Hartree energ DENC   =     -2157.26548464
  -exchange      EXHF   =         0.00000000
  -V(xc)+E(xc)   XCENC  =       533.47383465
  PAW double counting   =      8141.38806575    -8271.61346273
  entropy T*S    EENTRO =        -0.00000000
  eigenvalues    EBANDS =     -2744.85126165
  atomic energy  EATOM  =     12703.13999606
  Solvation  Ediel_sol  =         0.00000000
  ---------------------------------------------------
  free energy    TOTEN  =      -230.03417087 eV

  energy without entropy =     -230.03417087  energy(sigma->0) =     -230.03417087


--------------------------------------------------------------------------------------------------------




--------------------------------------- Iteration      1(   4)  ---------------------------------------


     EDDAV:  cpu time      2.3167: real time      2.3813
       DOS:  cpu time      0.0005: real time      0.0005
    --------------------------------------------
      LOOP:  cpu time      2.3172: real time      2.3818

 eigenvalue-minimisations  :  3512
 total energy-change (2. order) :-0.1186734E+02  (-0.1184586E+02)
 number of electron     240.0000000 magnetization      52.0000000
 augmentation part      240.0000000 magnetization      52.0000000

 Free energy of the ion-electron system (eV)
  ---------------------------------------------------
  alpha Z        PSCENC =       296.00644553
  Ewald energy   TEWEN  =     -8730.31230384
  -Hartree energ DENC   =     -2157.26548464
  -exchange      EXHF   =         0.00000000
  -V(xc)+E(xc)   XCENC  =       533.47383465
  PAW double counting   =      8141.38806575    -8271.61346273
  entropy T*S    EENTRO =        -0.00000000
  eigenvalues    EBANDS =     -2756.71859715
  atomic energy  EATOM  =     12703.13999606
  Solvation  Ediel_sol  =         0.00000000
  ---------------------------------------------------
  free energy    TOTEN  =      -241.90150637 eV

  energy without entropy =     -241.90150637  energy(sigma->0) =     -241.90150637


--------------------------------------------------------------------------------------------------------




--------------------------------------- Iteration      1(   5)  ---------------------------------------


     EDDAV:  cpu time      2.2605: real time      2.2946
       DOS:  cpu time      0.0005: real time      0.0005
    --------------------------------------------
      LOOP:  cpu time      2.2610: real time      2.2950

 eigenvalue-minimisations  :  3408
 total energy-change (2. order) :-0.2686674E+00  (-0.2685641E+00)
 number of electron     240.0000000 magnetization      52.0000000
 augmentation part      240.0000000 magnetization      52.0000000

 Free energy of the ion-electron system (eV)
  ---------------------------------------------------
  alpha Z        PSCENC =       296.00644553
  Ewald energy   TEWEN  =     -8730.31230384
  -Hartree energ DENC   =     -2157.26548464
  -exchange      EXHF   =         0.00000000
  -V(xc)+E(xc)   XCENC  =       533.47383465
  PAW double counting   =      8141.38806575    -8271.61346273
  entropy T*S    EENTRO =        -0.00000000
  eigenvalues    EBANDS =     -2756.98726454
  atomic energy  EATOM  =     12703.13999606
  Solvation  Ediel_sol  =         0.00000000
  ---------------------------------------------------
  free energy    TOTEN  =      -242.17017375 eV

  energy without entropy =     -242.17017375  energy(sigma->0) =     -242.17017375


--------------------------------------------------------------------------------------------------------




--------------------------------------- Iteration      1(   6)  ---------------------------------------


     EDDAV:  cpu time      2.2699: real time      2.3290
       DOS:  cpu time      0.0003: real time      0.0003
    --------------------------------------------
      LOOP:  cpu time      2.2702: real time      2.3294

 eigenvalue-minimisations  :  3440
 total energy-change (2. order) :-0.8335092E-02  (-0.8333984E-02)
 number of electron     240.0000000 magnetization      52.0000000
 augmentation part      240.0000000 magnetization      52.0000000

 Free energy of the ion-electron system (eV)
  ---------------------------------------------------
  alpha Z        PSCENC =       296.00644553
  Ewald energy   TEWEN  =     -8730.31230384
  -Hartree energ DENC   =     -2157.26548464
  -exchange      EXHF   =         0.00000000
  -V(xc)+E(xc)   XCENC  =       533.47383465
  PAW double counting   =      8141.38806575    -8271.61346273
  entropy T*S    EENTRO =        -0.00000000
  eigenvalues    EBANDS =     -2756.99559963
  atomic energy  EATOM  =     12703.13999606
  Solvation  Ediel_sol  =         0.00000000
  ---------------------------------------------------
  free energy    TOTEN  =      -242.17850885 eV

  energy without entropy =     -242.17850885  energy(sigma->0) =     -242.17850885


--------------------------------------------------------------------------------------------------------




--------------------------------------- Iteration      1(   7)  ---------------------------------------


     EDDAV:  cpu time      2.2676: real time      2.2876
       DOS:  cpu time      0.0005: real time      0.0006
    --------------------------------------------
      LOOP:  cpu time      2.2681: real time      2.2882

 eigenvalue-minimisations  :  3432
 total energy-change (2. order) :-0.4175389E-03  (-0.4175158E-03)
 number of electron     240.0000000 magnetization      52.0000000
 augmentation part      240.0000000 magnetization      52.0000000

 Free energy of the ion-electron system (eV)
  ---------------------------------------------------
  alpha Z        PSCENC =       296.00644553
  Ewald energy   TEWEN  =     -8730.31230384
  -Hartree energ DENC   =     -2157.26548464
  -exchange      EXHF   =         0.00000000
  -V(xc)+E(xc)   XCENC  =       533.47383465
  PAW double counting   =      8141.38806575    -8271.61346273
  entropy T*S    EENTRO =        -0.00000000
  eigenvalues    EBANDS =     -2756.99601717
  atomic energy  EATOM  =     12703.13999606
  Solvation  Ediel_sol  =         0.00000000
  ---------------------------------------------------
  free energy    TOTEN  =      -242.17892638 eV

  energy without entropy =     -242.17892638  energy(sigma->0) =     -242.17892638


--------------------------------------------------------------------------------------------------------




--------------------------------------- Iteration      1(   8)  ---------------------------------------


     EDDAV:  cpu time      2.2372: real time      2.2554
       DOS:  cpu time      0.0005: real time      0.0005
    --------------------------------------------
      LOOP:  cpu time      2.2377: real time      2.2559

 eigenvalue-minimisations  :  3376
 total energy-change (2. order) :-0.2671526E-04  (-0.2671480E-04)
 number of electron     240.0000000 magnetization      52.0000000
 augmentation part      240.0000000 magnetization      52.0000000

 Free energy of the ion-electron system (eV)
  ---------------------------------------------------
  alpha Z        PSCENC =       296.00644553
  Ewald energy   TEWEN  =     -8730.31230384
  -Hartree energ DENC   =     -2157.26548464
  -exchange      EXHF   =         0.00000000
  -V(xc)+E(xc)   XCENC  =       533.47383465
  PAW double counting   =      8141.38806575    -8271.61346273
  entropy T*S    EENTRO =        -0.00000000
  eigenvalues    EBANDS =     -2756.99604388
  atomic energy  EATOM  =     12703.13999606
  Solvation  Ediel_sol  =         0.00000000
  ---------------------------------------------------
  free energy    TOTEN  =      -242.17895310 eV

  energy without entropy =     -242.17895310  energy(sigma->0) =     -242.17895310


--------------------------------------------------------------------------------------------------------




--------------------------------------- Iteration      1(   9)  ---------------------------------------


     EDDAV:  cpu time      2.2776: real time      2.2974
       DOS:  cpu time      0.0028: real time      0.0029
    --------------------------------------------
      LOOP:  cpu time      2.2803: real time      2.3003

 eigenvalue-minimisations  :  3416
 total energy-change (2. order) :-0.1829940E-05  (-0.1829660E-05)
 number of electron     240.0000000 magnetization      52.0000000
 augmentation part      240.0000000 magnetization      52.0000000

 Free energy of the ion-electron system (eV)
  ---------------------------------------------------
  alpha Z        PSCENC =       296.00644553
  Ewald energy   TEWEN  =     -8730.31230384
  -Hartree energ DENC   =     -2157.26548464
  -exchange      EXHF   =         0.00000000
  -V(xc)+E(xc)   XCENC  =       533.47383465
  PAW double counting   =      8141.38806575    -8271.61346273
  entropy T*S    EENTRO =        -0.00000000
  eigenvalues    EBANDS =     -2756.99604571
  atomic energy  EATOM  =     12703.13999606
  Solvation  Ediel_sol  =         0.00000000
  ---------------------------------------------------
  free energy    TOTEN  =      -242.17895493 eV

  energy without entropy =     -242.17895493  energy(sigma->0) =     -242.17895493


--------------------------------------------------------------------------------------------------------




--------------------------------------- Iteration      1(  10)  ---------------------------------------


     EDDAV:  cpu time      1.6376: real time      1.6565
       DOS:  cpu time      0.0005: real time      0.0005
    CHARGE:  cpu time      0.2188: real time      0.2704
    MIXING:  cpu time      0.0019: real time      0.0033
    --------------------------------------------
      LOOP:  cpu time      1.8587: real time      1.9307

 eigenvalue-minimisations  :  1992
 total energy-change (2. order) :-0.9339419E-07  (-0.9326312E-07)
 number of electron     240.0000000 magnetization      27.4642447
 augmentation part        1.4882475 magnetization      27.9051313

 Broyden mixing:
  rms(total) = 0.64825E+01    rms(broyden)= 0.64823E+01
  rms(prec ) = 0.67253E+01
  weight for this iteration     100.00

 Free energy of the ion-electron system (eV)
  ---------------------------------------------------
  alpha Z        PSCENC =       296.00644553
  Ewald energy   TEWEN  =     -8730.31230384
  -Hartree energ DENC   =     -2157.26548464
  -exchange      EXHF   =         0.00000000
  -V(xc)+E(xc)   XCENC  =       533.47383465
  PAW double counting   =      8141.38806575    -8271.61346273
  entropy T*S    EENTRO =        -0.00000000
  eigenvalues    EBANDS =     -2756.99604581
  atomic energy  EATOM  =     12703.13999606
  Solvation  Ediel_sol  =         0.00000000
  ---------------------------------------------------
  free energy    TOTEN  =      -242.17895502 eV

  energy without entropy =     -242.17895502  energy(sigma->0) =     -242.17895502


--------------------------------------------------------------------------------------------------------




--------------------------------------- Iteration      1(  11)  ---------------------------------------


    POTLOK:  cpu time      0.0570: real time      0.0581
    SETDIJ:  cpu time      0.3958: real time      0.3994
    EDDIAG:  cpu time      0.2772: real time      0.2802
  RMM-DIIS:  cpu time      0.8777: real time      0.8861
    ORTHCH:  cpu time      0.0522: real time      0.0525
       DOS:  cpu time      0.0004: real time      0.0004
    CHARGE:  cpu time      0.1850: real time      0.2708
    MIXING:  cpu time      0.0010: real time      0.0020
    --------------------------------------------
      LOOP:  cpu time      1.8465: real time      1.9496

 eigenvalue-minimisations  :  2112
 total energy-change (2. order) : 0.7549415E+01  (-0.4971559E+01)
 number of electron     239.9999999 magnetization      16.4751496
 augmentation part        1.6982877 magnetization      16.6635918

 Broyden mixing:
  rms(total) = 0.33225E+01    rms(broyden)= 0.33224E+01
  rms(prec ) = 0.34392E+01
  weight for this iteration     100.00

 eigenvalues of (default mixing * dielectric matrix)
  average eigenvalue GAMMA=   0.7266
  0.7266

 Free energy of the ion-electron system (eV)
  ---------------------------------------------------
  alpha Z        PSCENC =       296.00644553
  Ewald energy   TEWEN  =     -8730.31230384
  -Hartree energ DENC   =     -2208.32667294
  -exchange      EXHF   =         0.00000000
  -V(xc)+E(xc)   XCENC  =       542.40646626
  PAW double counting   =      8940.54123101    -9076.94944545
  entropy T*S    EENTRO =        -0.00000000
  eigenvalues    EBANDS =     -2701.13525652
  atomic energy  EATOM  =     12703.13999606
  Solvation  Ediel_sol  =         0.00000000
  ---------------------------------------------------
  free energy    TOTEN  =      -234.62953989 eV

  energy without entropy =     -234.62953989  energy(sigma->0) =     -234.62953989


--------------------------------------------------------------------------------------------------------




--------------------------------------- Iteration      1(  12)  ---------------------------------------


    POTLOK:  cpu time      0.0507: real time      0.0551
    SETDIJ:  cpu time      0.3971: real time      0.4020
    EDDIAG:  cpu time      0.2709: real time      0.2724
  RMM-DIIS:  cpu time      0.9262: real time      0.9347
    ORTHCH:  cpu time      0.0516: real time      0.0527
       DOS:  cpu time      0.0005: real time      0.0005
    CHARGE:  cpu time      0.1101: real time      0.1552
    MIXING:  cpu time      0.0010: real time      0.0010
    --------------------------------------------
      LOOP:  cpu time      1.8081: real time      1.8736

 eigenvalue-minimisations  :  2222
 total energy-change (2. order) :-0.2134421E+02  (-0.2406136E+01)
 number of electron     239.9999999 magnetization       1.0406285
 augmentation part        1.8098695 magnetization       1.3871127

 Broyden mixing:
  rms(total) = 0.20751E+01    rms(broyden)= 0.20751E+01
  rms(prec ) = 0.21342E+01
  weight for this iteration     100.00

 eigenvalues of (default mixing * dielectric matrix)
  average eigenvalue GAMMA=   1.1165
  1.5653  0.6677

 Free energy of the ion-electron system (eV)
  ---------------------------------------------------
  alpha Z        PSCENC =       296.00644553
  Ewald energy   TEWEN  =     -8730.31230384
  -Hartree energ DENC   =     -2234.74486252
  -exchange      EXHF   =         0.00000000
  -V(xc)+E(xc)   XCENC  =       535.95224909
  PAW double counting   =      9302.10139182    -9442.20080131
  entropy T*S    EENTRO =        -0.00000000
  eigenvalues    EBANDS =     -2685.91586159
  atomic energy  EATOM  =     12703.13999606
  Solvation  Ediel_sol  =         0.00000000
  ---------------------------------------------------
  free energy    TOTEN  =      -255.97374676 eV

  energy without entropy =     -255.97374676  energy(sigma->0) =     -255.97374676


--------------------------------------------------------------------------------------------------------




--------------------------------------- Iteration      1(  13)  ---------------------------------------


    POTLOK:  cpu time      0.0517: real time      0.0526
    SETDIJ:  cpu time      0.4012: real time      0.4029
    EDDIAG:  cpu time      0.2721: real time      0.2745
  RMM-DIIS:  cpu time      0.9054: real time      0.9136
    ORTHCH:  cpu time      0.0522: real time      0.0530
       DOS:  cpu time      0.0004: real time      0.0004
    CHARGE:  cpu time      0.1119: real time      0.1513
    MIXING:  cpu time      0.0016: real time      0.0017
    --------------------------------------------
      LOOP:  cpu time      1.7964: real time      1.8500

 eigenvalue-minimisations  :  2168
 total energy-change (2. order) :-0.2485594E+01  (-0.8723019E+00)
 number of electron     239.9999999 magnetization      -1.8912513
 augmentation part        1.9125346 magnetization      -1.7782274

 Broyden mixing:
  rms(total) = 0.72472E+00    rms(broyden)= 0.72472E+00
  rms(prec ) = 0.75650E+00
  weight for this iteration     100.00

 eigenvalues of (default mixing * dielectric matrix)
  average eigenvalue GAMMA=   1.3066
  2.5268  0.7421  0.6509

 Free energy of the ion-electron system (eV)
  ---------------------------------------------------
  alpha Z        PSCENC =       296.00644553
  Ewald energy   TEWEN  =     -8730.31230384
  -Hartree energ DENC   =     -2263.12209251
  -exchange      EXHF   =         0.00000000
  -V(xc)+E(xc)   XCENC  =       537.36570975
  PAW double counting   =      9791.71216647    -9935.67126530
  entropy T*S    EENTRO =        -0.00000000
  eigenvalues    EBANDS =     -2657.57799686
  atomic energy  EATOM  =     12703.13999606
  Solvation  Ediel_sol  =         0.00000000
  ---------------------------------------------------
  free energy    TOTEN  =      -258.45934069 eV

  energy without entropy =     -258.45934069  energy(sigma->0) =     -258.45934069


--------------------------------------------------------------------------------------------------------




--------------------------------------- Iteration      1(  14)  ---------------------------------------


    POTLOK:  cpu time      0.0513: real time      0.0538
    SETDIJ:  cpu time      0.4010: real time      0.4024
    EDDIAG:  cpu time      0.2703: real time      0.2718
  RMM-DIIS:  cpu time      1.1531: real time      1.1634
    ORTHCH:  cpu time      0.0515: real time      0.0518
       DOS:  cpu time      0.0005: real time      0.0005
    CHARGE:  cpu time      0.1086: real time      0.1330
    MIXING:  cpu time      0.0011: real time      0.0013
    --------------------------------------------
      LOOP:  cpu time      2.0374: real time      2.0779

 eigenvalue-minimisations  :  2771
 total energy-change (2. order) :-0.1984173E+00  (-0.2063882E+00)
 number of electron     239.9999999 magnetization      -0.9006782
 augmentation part        1.8881270 magnetization      -0.8747221

 Broyden mixing:
  rms(total) = 0.32492E+00    rms(broyden)= 0.32492E+00
  rms(prec ) = 0.36102E+00
  weight for this iteration     100.00

 eigenvalues of (default mixing * dielectric matrix)
  average eigenvalue GAMMA=   1.2748
  2.6365  1.1741  0.6914  0.5972

 Free energy of the ion-electron system (eV)
  ---------------------------------------------------
  alpha Z        PSCENC =       296.00644553
  Ewald energy   TEWEN  =     -8730.31230384
  -Hartree energ DENC   =     -2265.88406797
  -exchange      EXHF   =         0.00000000
  -V(xc)+E(xc)   XCENC  =       537.93776194
  PAW double counting   =      9882.92080409   -10027.78787336
  entropy T*S    EENTRO =        -0.00000000
  eigenvalues    EBANDS =     -2654.67852043
  atomic energy  EATOM  =     12703.13999606
  Solvation  Ediel_sol  =         0.00000000
  ---------------------------------------------------
  free energy    TOTEN  =      -258.65775797 eV

  energy without entropy =     -258.65775797  energy(sigma->0) =     -258.65775797


--------------------------------------------------------------------------------------------------------




--------------------------------------- Iteration      1(  15)  ---------------------------------------


    POTLOK:  cpu time      0.0510: real time      0.0535
    SETDIJ:  cpu time      0.4003: real time      0.4020
    EDDIAG:  cpu time      0.2710: real time      0.2731
  RMM-DIIS:  cpu time      1.0283: real time      1.0372
    ORTHCH:  cpu time      0.0518: real time      0.0525
       DOS:  cpu time      0.0004: real time      0.0004
    CHARGE:  cpu time      0.1073: real time      0.1337
    MIXING:  cpu time      0.0012: real time      0.0012
    --------------------------------------------
      LOOP:  cpu time      1.9113: real time      1.9537

 eigenvalue-minimisations  :  2284
 total energy-change (2. order) : 0.3178897E-01  (-0.3508430E-01)
 number of electron     239.9999999 magnetization      -0.2441607
 augmentation part        1.8379504 magnetization      -0.2188759

 Broyden mixing:
  rms(total) = 0.67855E-01    rms(broyden)= 0.67853E-01
  rms(prec ) = 0.80473E-01
  weight for this iteration     100.00

 eigenvalues of (default mixing * dielectric matrix)
  average eigenvalue GAMMA=   1.2738
  2.5434  1.5767  0.9561  0.6866  0.6059

 Free energy of the ion-electron system (eV)
  ---------------------------------------------------
  alpha Z        PSCENC =       296.00644553
  Ewald energy   TEWEN  =     -8730.31230384
  -Hartree energ DENC   =     -2261.17500704
  -exchange      EXHF   =         0.00000000
  -V(xc)+E(xc)   XCENC  =       537.55345945
  PAW double counting   =      9850.80340949    -9995.45950906
  entropy T*S    EENTRO =        -0.00000000
  eigenvalues    EBANDS =     -2659.18245960
  atomic energy  EATOM  =     12703.13999606
  Solvation  Ediel_sol  =         0.00000000
  ---------------------------------------------------
  free energy    TOTEN  =      -258.62596900 eV

  energy without entropy =     -258.62596900  energy(sigma->0) =     -258.62596900


--------------------------------------------------------------------------------------------------------




--------------------------------------- Iteration      1(  16)  ---------------------------------------


    POTLOK:  cpu time      0.0502: real time      0.0524
    SETDIJ:  cpu time      0.4017: real time      0.4030
    EDDIAG:  cpu time      0.2703: real time      0.2736
  RMM-DIIS:  cpu time      0.9690: real time      0.9782
    ORTHCH:  cpu time      0.0516: real time      0.0531
       DOS:  cpu time      0.0005: real time      0.0005
    CHARGE:  cpu time      0.1066: real time      0.1312
    MIXING:  cpu time      0.0012: real time      0.0012
    --------------------------------------------
      LOOP:  cpu time      1.8510: real time      1.8932

 eigenvalue-minimisations  :  2324
 total energy-change (2. order) :-0.2129119E-01  (-0.1104551E-01)
 number of electron     239.9999999 magnetization      -0.1124481
 augmentation part        1.8149668 magnetization      -0.0983955

 Broyden mixing:
  rms(total) = 0.31253E-01    rms(broyden)= 0.31252E-01
  rms(prec ) = 0.38020E-01
  weight for this iteration     100.00

 eigenvalues of (default mixing * dielectric matrix)
  average eigenvalue GAMMA=   1.2492
  2.4512  1.9364  1.0423  0.6221  0.7008  0.7422

 Free energy of the ion-electron system (eV)
  ---------------------------------------------------
  alpha Z        PSCENC =       296.00644553
  Ewald energy   TEWEN  =     -8730.31230384
  -Hartree energ DENC   =     -2260.62417123
  -exchange      EXHF   =         0.00000000
  -V(xc)+E(xc)   XCENC  =       537.46139618
  PAW double counting   =      9837.55805291    -9981.96363166
  entropy T*S    EENTRO =        -0.00000000
  eigenvalues    EBANDS =     -2659.91304416
  atomic energy  EATOM  =     12703.13999606
  Solvation  Ediel_sol  =         0.00000000
[...]
 -0.070   0.071   0.000   0.433  -0.266   0.076   0.003  -0.002   0.001   0.006   0.001  -0.001  -0.007   0.001
  0.070  -0.071  -0.000  -0.266   0.433  -0.076  -0.002   0.003  -0.001  -0.007  -0.001   0.001   0.006  -0.001
 -0.236   0.242   0.001   0.076  -0.076   1.035   0.001  -0.001   0.008   0.000  -0.006   0.006  -0.000  -0.010
 -0.001   0.001   0.000   0.003  -0.002   0.001   0.000  -0.000   0.000   0.000   0.000  -0.000  -0.000   0.000
  0.001  -0.001  -0.000  -0.002   0.003  -0.001  -0.000   0.000  -0.000  -0.000  -0.000   0.000   0.000  -0.000
 -0.001   0.001   0.000   0.001  -0.001   0.008   0.000  -0.000   0.000   0.000  -0.000   0.000  -0.000  -0.000
  0.012  -0.012  -0.000   0.006  -0.007   0.000   0.000  -0.000   0.000   0.000   0.000  -0.000  -0.000   0.000
 -0.032   0.032   0.000   0.001  -0.001  -0.006   0.000  -0.000  -0.000   0.000   0.000  -0.000  -0.000   0.000
 -0.024   0.024   0.000  -0.001   0.001   0.006  -0.000   0.000   0.000  -0.000  -0.000   0.000   0.000  -0.000
 -0.012   0.012   0.000  -0.007   0.006  -0.000  -0.000   0.000  -0.000  -0.000  -0.000   0.000   0.000  -0.000
  0.041  -0.041  -0.000   0.001  -0.001  -0.010   0.000  -0.000  -0.000   0.000   0.000  -0.000  -0.000   0.000
 total augmentation occupancy for first ion, spin component:           2
  0.000  -0.000   0.000  -0.000   0.000  -0.000   0.000  -0.000   0.000  -0.000  -0.000  -0.000   0.000   0.000
 -0.000   0.000  -0.000   0.000  -0.000   0.000   0.000  -0.000  -0.000   0.000   0.000   0.000  -0.000  -0.000
  0.000  -0.000  -0.000  -0.000   0.000  -0.000  -0.000   0.000  -0.000   0.000  -0.000  -0.000  -0.000   0.000
 -0.000   0.000  -0.000  -0.000  -0.000  -0.000  -0.000   0.000  -0.000  -0.000  -0.000   0.000   0.000  -0.000
  0.000  -0.000   0.000  -0.000  -0.000   0.000   0.000  -0.000   0.000   0.000   0.000  -0.000  -0.000   0.000
 -0.000   0.000  -0.000  -0.000   0.000  -0.000   0.000  -0.000  -0.000  -0.000   0.000   0.000   0.000  -0.000
  0.000   0.000  -0.000  -0.000   0.000   0.000   0.000   0.000  -0.000  -0.000  -0.000   0.000   0.000   0.000
 -0.000  -0.000   0.000   0.000  -0.000  -0.000   0.000   0.000   0.000   0.000   0.000   0.000  -0.000   0.000
  0.000  -0.000  -0.000  -0.000   0.000  -0.000  -0.000   0.000  -0.000  -0.000  -0.000   0.000   0.000  -0.000
 -0.000   0.000   0.000  -0.000   0.000  -0.000  -0.000   0.000  -0.000  -0.000  -0.000   0.000   0.000  -0.000
 -0.000   0.000  -0.000  -0.000   0.000   0.000  -0.000   0.000  -0.000  -0.000  -0.000   0.000   0.000  -0.000
 -0.000   0.000  -0.000   0.000  -0.000   0.000   0.000   0.000   0.000   0.000   0.000  -0.000  -0.000   0.000
  0.000  -0.000  -0.000   0.000  -0.000   0.000   0.000  -0.000   0.000   0.000   0.000  -0.000  -0.000   0.000
  0.000  -0.000   0.000  -0.000   0.000  -0.000   0.000   0.000  -0.000  -0.000  -0.000   0.000   0.000  -0.000


------------------------ aborting loop because EDIFF is reached ----------------------------------------


    CHARGE:  cpu time      0.1003: real time      0.1068
    FORLOC:  cpu time      0.0037: real time      0.0037
    FORNL :  cpu time      0.3040: real time      0.3062
    STRESS:  cpu time      0.9046: real time      0.9110
    FORCOR:  cpu time      0.0497: real time      0.0501
    FORHAR:  cpu time      0.0085: real time      0.0086
    MIXING:  cpu time      0.0008: real time      0.0008
    OFIELD:  cpu time      0.0000: real time      0.0000

 ---------------------------------------------------------------------------------------------

         DFTD3 V3.0 Rev 1        
 Edisp (eV)  -13.33718

 E6    (eV) :    -8.2172
 E8    (eV) :    -5.1200
 % E8        : 38.39
    FORVDW:  cpu time      0.2908: real time      0.2929

  FORCE on cell =-STRESS in cart. coord.  units (eV):
  Direction    XX          YY          ZZ          XY          YZ          ZX
  --------------------------------------------------------------------------------------
  Alpha Z   296.00645   296.00645   296.00645
  Ewald   -2976.07161 -2877.21519 -2877.21519   -32.70889     2.95119    32.70889
  Hartree   723.32036   769.99992   769.99993   -16.65126    -5.10741    16.65126
  E(xc)    -947.82827  -947.65365  -947.65364    -0.07706    -0.04770     0.07706
  Local   -1456.15424 -1592.94841 -1592.94842    46.96640     4.09349   -46.96640
  n-local  1481.17473  1481.49450  1481.37653    -0.49859     0.19556    -0.47720
  augment  -356.87045  -356.54339  -356.54337    -0.13744    -0.35523     0.14174
  Kinetic  3249.53043  3241.69348  3241.51955     2.31355     3.34817    -3.72672
  Fock        0.00000     0.00000     0.00000     0.00000     0.00000     0.00000
  vdW       -14.14592   -14.17630   -14.17630    -0.02187     0.01705     0.02187
  -------------------------------------------------------------------------------------
  Total      -1.03851     0.51147     0.51147     0.37717     5.09488    -0.37717
  in kB      -1.81434     0.89357     0.89357     0.65893     8.90111    -0.65894
  external pressure =       -0.01 kB  Pullay stress =        0.00 kB


 VOLUME and BASIS-vectors are now :
 -----------------------------------------------------------------------------
  energy-cutoff  :      520.00
  volume of cell :      917.07
      direct lattice vectors                 reciprocal lattice vectors
     9.715538886  0.000000000  0.000000000     0.102927898  0.000000000  0.000000000
     0.000000000  9.715538886  0.000000000     0.000000000  0.102927898  0.000000000
     0.000000000  0.000000000  9.715538886     0.000000000  0.000000000  0.102927898

  length of vectors
     9.715538886  9.715538886  9.715538886     0.102927898  0.102927898  0.102927898


 FORCES acting on ions
    electron-ion (+dipol)            ewald-force                    non-local-force                 convergence-correction
 -----------------------------------------------------------------------------------------------
   -.459E+00 -.100E+01 0.100E+01   -.209E+00 0.848E+00 -.848E+00   0.661E+00 0.151E+00 -.151E+00   0.434E-03 0.914E-04 -.914E-04
   0.204E+01 -.246E+01 0.246E+01   -.289E+01 0.224E+01 -.224E+01   0.846E+00 0.219E+00 -.219E+00   0.335E-04 -.262E-04 0.262E-04
   0.107E+02 0.480E+01 -.132E+02   -.101E+02 -.346E+01 0.121E+02   -.649E+00 -.134E+01 0.114E+01   0.160E-03 -.552E-04 -.197E-04
   0.107E+02 0.132E+02 -.480E+01   -.101E+02 -.121E+02 0.346E+01   -.649E+00 -.114E+01 0.134E+01   0.160E-03 0.197E-04 0.552E-04
   -.381E+01 -.551E+01 -.112E+00   0.279E+01 0.468E+01 -.897E+00   0.103E+01 0.825E+00 0.101E+01   -.726E-04 -.990E-04 0.122E-03
   -.298E+01 0.254E+01 -.320E+01   0.377E+01 -.361E+01 0.376E+01   -.795E+00 0.108E+01 -.553E+00   -.122E-04 0.770E-04 0.435E-04
   -.441E+01 0.225E+01 0.669E+01   0.497E+01 -.329E+01 -.633E+01   -.563E+00 0.104E+01 -.356E+00   -.176E-03 0.441E-04 0.740E-04
   -.388E+00 -.133E+02 -.522E+01   -.627E+00 0.120E+02 0.445E+01   0.101E+01 0.131E+01 0.768E+00   0.759E-04 -.122E-03 -.155E-03
   0.500E+01 -.687E+01 -.238E+01   -.401E+01 0.642E+01 0.346E+01   -.985E+00 0.448E+00 -.107E+01   0.292E-03 0.178E-05 -.136E-03
   -.235E+01 -.119E+01 0.137E+01   0.327E+01 0.185E+01 -.254E+01   -.924E+00 -.648E+00 0.117E+01   -.554E-04 -.530E-04 0.191E-03
   0.258E+01 -.405E+01 -.345E+01   -.180E+01 0.340E+01 0.454E+01   -.780E+00 0.646E+00 -.109E+01   0.138E-03 0.100E-03 0.247E-04
   -.130E+02 -.173E+01 0.125E+02   0.116E+02 0.229E+01 -.118E+02   0.138E+01 -.555E+00 -.678E+00   -.633E-03 0.894E-05 0.744E-03
   -.235E+01 -.137E+01 0.119E+01   0.327E+01 0.254E+01 -.185E+01   -.924E+00 -.117E+01 0.648E+00   -.554E-04 -.191E-03 0.530E-04
   0.500E+01 0.238E+01 0.687E+01   -.401E+01 -.346E+01 -.642E+01   -.985E+00 0.107E+01 -.448E+00   0.292E-03 0.136E-03 -.178E-05
   0.258E+01 0.345E+01 0.405E+01   -.180E+01 -.454E+01 -.340E+01   -.780E+00 0.109E+01 -.646E+00   0.138E-03 -.247E-04 -.100E-03
   -.130E+02 -.125E+02 0.173E+01   0.116E+02 0.118E+02 -.229E+01   0.138E+01 0.678E+00 0.555E+00   -.633E-03 -.744E-03 -.894E-05
   -.298E+01 0.320E+01 -.254E+01   0.377E+01 -.376E+01 0.361E+01   -.795E+00 0.553E+00 -.108E+01   -.122E-04 -.435E-04 -.770E-04
   -.381E+01 0.112E+00 0.551E+01   0.279E+01 0.897E+00 -.468E+01   0.103E+01 -.101E+01 -.825E+00   -.726E-04 -.122E-03 0.990E-04
   -.441E+01 -.669E+01 -.225E+01   0.497E+01 0.633E+01 0.329E+01   -.563E+00 0.356E+00 -.104E+01   -.176E-03 -.740E-04 -.441E-04
   -.388E+00 0.522E+01 0.133E+02   -.627E+00 -.445E+01 -.120E+02   0.101E+01 -.768E+00 -.131E+01   0.759E-04 0.155E-03 0.122E-03
   0.400E+01 0.622E+01 0.951E+01   -.504E+01 -.537E+01 -.826E+01   0.105E+01 -.850E+00 -.126E+01   -.178E-03 0.125E-03 -.181E-04
   0.400E+01 -.951E+01 -.622E+01   -.504E+01 0.826E+01 0.537E+01   0.105E+01 0.126E+01 0.850E+00   -.178E-03 0.180E-04 -.125E-03
   0.840E+01 0.597E+01 -.597E+01   -.771E+01 -.508E+01 0.508E+01   -.691E+00 -.888E+00 0.888E+00   -.615E-04 0.127E-03 -.127E-03
   -.215E+01 0.101E+02 -.101E+02   0.283E+01 -.902E+01 0.902E+01   -.687E+00 -.104E+01 0.104E+01   -.252E-03 -.303E-04 0.303E-04
   -.756E+01 0.464E+01 -.499E+00   0.732E+01 -.454E+01 0.798E+00   0.240E+00 -.103E+00 -.298E+00   -.239E-03 -.145E-03 0.478E-04
   -.756E+01 0.499E+00 -.464E+01   0.732E+01 -.798E+00 0.454E+01   0.240E+00 0.298E+00 0.103E+00   -.239E-03 -.478E-04 0.145E-03
   0.439E+01 0.900E+01 -.900E+01   -.459E+01 -.900E+01 0.900E+01   0.196E+00 -.772E-02 0.772E-02   0.259E-03 0.938E-04 -.938E-04
   -.259E+01 -.433E+01 0.433E+01   0.265E+01 0.414E+01 -.414E+01   -.548E-01 0.195E+00 -.195E+00   0.273E-04 -.163E-03 0.163E-03
   -.727E+02 0.157E+02 -.157E+02   0.773E+02 -.181E+02 0.181E+02   -.467E+01 0.241E+01 -.241E+01   0.455E-04 -.284E-04 0.284E-04
   -.463E+02 -.401E+02 0.401E+02   0.497E+02 0.430E+02 -.430E+02   -.347E+01 -.290E+01 0.290E+01   0.560E-03 0.134E-03 -.134E-03
   0.346E+02 0.450E+02 0.459E+02   -.374E+02 -.484E+02 -.492E+02   0.286E+01 0.341E+01 0.330E+01   -.123E-04 -.124E-04 0.293E-03
   0.346E+02 -.459E+02 -.450E+02   -.374E+02 0.492E+02 0.484E+02   0.286E+01 -.330E+01 -.341E+01   -.123E-04 -.293E-03 0.124E-04
   0.469E+02 -.344E+02 -.464E+02   -.501E+02 0.376E+02 0.494E+02   0.323E+01 -.326E+01 -.291E+01   0.199E-03 -.139E-04 -.488E-04
   0.469E+02 0.464E+02 0.344E+02   -.501E+02 -.494E+02 -.376E+02   0.323E+01 0.291E+01 0.326E+01   0.199E-03 0.488E-04 0.139E-04
   -.419E+02 -.296E+02 0.296E+02   0.454E+02 0.325E+02 -.325E+02   -.355E+01 -.293E+01 0.293E+01   0.381E-03 -.156E-03 0.156E-03
   -.403E+02 0.445E+02 -.445E+02   0.433E+02 -.476E+02 0.476E+02   -.304E+01 0.312E+01 -.312E+01   0.483E-03 -.289E-03 0.289E-03
   -.469E+02 -.417E+02 0.315E+02   0.498E+02 0.453E+02 -.344E+02   -.288E+01 -.356E+01 0.288E+01   -.206E-03 -.503E-04 -.762E-04
   -.356E+02 0.504E+02 -.341E+02   0.381E+02 -.543E+02 0.369E+02   -.245E+01 0.389E+01 -.278E+01   -.685E-03 0.773E-04 -.972E-04
   0.423E+02 -.424E+02 -.497E+02   -.456E+02 0.455E+02 0.527E+02   0.327E+01 -.312E+01 -.302E+01   -.337E-03 0.220E-03 0.654E-05
   0.134E+02 0.479E+02 0.524E+02   -.152E+02 -.512E+02 -.562E+02   0.184E+01 0.327E+01 0.381E+01   -.193E-03 -.110E-03 -.154E-03
   -.469E+02 -.315E+02 0.417E+02   0.498E+02 0.344E+02 -.453E+02   -.288E+01 -.288E+01 0.356E+01   -.206E-03 0.762E-04 0.503E-04
   -.356E+02 0.341E+02 -.504E+02   0.381E+02 -.369E+02 0.543E+02   -.245E+01 0.278E+01 -.389E+01   -.685E-03 0.972E-04 -.773E-04
   0.134E+02 -.524E+02 -.479E+02   -.152E+02 0.562E+02 0.512E+02   0.184E+01 -.381E+01 -.327E+01   -.193E-03 0.154E-03 0.110E-03
   0.423E+02 0.497E+02 0.424E+02   -.456E+02 -.527E+02 -.455E+02   0.327E+01 0.302E+01 0.312E+01   -.337E-03 -.653E-05 -.220E-03
   0.154E+02 0.102E+02 -.102E+02   -.159E+02 -.105E+02 0.105E+02   0.473E+00 0.312E+00 -.312E+00   0.325E-03 -.229E-04 0.229E-04
   -.659E+01 0.711E-01 -.711E-01   0.626E+01 -.319E-01 0.319E-01   0.343E+00 -.375E-01 0.375E-01   -.119E-02 -.254E-03 0.254E-03
   -.105E+02 -.379E+01 -.351E+01   0.107E+02 0.385E+01 0.357E+01   -.201E+00 -.649E-01 -.559E-01   0.200E-03 0.896E-05 -.166E-03
   -.105E+02 0.351E+01 0.379E+01   0.107E+02 -.357E+01 -.385E+01   -.201E+00 0.559E-01 0.649E-01   0.200E-03 0.166E-03 -.896E-05
   0.376E+02 -.259E+02 -.176E+02   -.382E+02 0.261E+02 0.178E+02   0.566E+00 -.198E+00 -.231E+00   0.212E-02 -.609E-03 -.137E-02
   0.376E+02 0.176E+02 0.259E+02   -.382E+02 -.178E+02 -.261E+02   0.566E+00 0.231E+00 0.198E+00   0.212E-02 0.137E-02 0.609E-03
   0.392E+02 -.117E+01 0.117E+01   -.399E+02 0.108E+01 -.108E+01   0.712E+00 0.910E-01 -.910E-01   0.556E-03 0.963E-03 -.963E-03
   0.452E+01 -.201E+02 0.201E+02   -.466E+01 0.206E+02 -.206E+02   0.146E+00 -.486E+00 0.486E+00   -.311E-03 0.814E-04 -.814E-04
 -----------------------------------------------------------------------------------------------
   0.271E+00 -.659E+00 0.659E+00   0.897E-13 -.249E-13 -.604E-13   -.295E+00 0.653E+00 -.653E+00   0.207E-02 0.607E-03 -.607E-03
 
 
 POSITION                                       TOTAL-FORCE (eV/Angst)
 -----------------------------------------------------------------------------------
      9.43528      2.60260      2.25386         0.000354      0.000167     -0.000167
      9.56467      7.46150      7.11050        -0.000162      0.000169     -0.000169
      0.24218      1.83801      8.13090         0.000097      0.000090     -0.000063
      0.24218      6.44110      3.01845         0.000097      0.000063     -0.000090
      3.27521      2.91647      9.40925        -0.000021      0.000024     -0.000064
      2.10841      7.53686      0.27285         0.000057      0.000028     -0.000040
      6.66030      2.90737      0.13788         0.000150     -0.000061     -0.000073
      8.01622      7.91738      9.47412        -0.000084     -0.000091     -0.000065
      1.74725      9.44028      1.96767         0.000050     -0.000046      0.000029
      2.17356      0.11107      7.86629         0.000136      0.000011     -0.000211
      6.81263      9.47224      6.87841        -0.000061      0.000077      0.000015
      7.66431      0.23962      2.20327        -0.000636     -0.000002      0.000597
      2.17356      6.70572      4.74539         0.000136      0.000211     -0.000011
      1.74725      2.88879      5.13172         0.000050     -0.000029      0.000046
      6.81263      7.69359      5.09976        -0.000061     -0.000015     -0.000077
      7.66431      2.65319      4.61685        -0.000636     -0.000597      0.000002
      2.10841      4.58361      7.03515         0.000057      0.000040     -0.000028
      3.27521      5.16275      1.93999        -0.000021      0.000064     -0.000024
      6.66030      4.71859      1.94909         0.000150      0.000073      0.000061
      8.01622      5.09788      6.65462        -0.000084      0.000065      0.000091
      4.52886      1.73140      6.54617         0.000218      0.000084      0.000124
      4.52886      8.02583      3.12507         0.000218     -0.000124     -0.000084
      5.08293      1.70864      3.14783         0.000314      0.000001     -0.000001
      5.32875      6.37183      8.20018         0.000167      0.000024     -0.000024
      4.89402      4.79684      4.96786         0.000529      0.000538      0.000144
      4.89402      9.60414      0.05963         0.000529     -0.000144     -0.000538
      0.02783      4.86521      9.70679        -0.000202      0.000112     -0.000112
      0.09210      9.69826      4.87374        -0.000245     -0.000226      0.000226
      1.47343      8.62953      5.94247        -0.000505      0.000184     -0.000184
      1.09405      1.25394      3.60252        -0.000185     -0.000020      0.000020
      8.66145      8.42804      3.73721        -0.000352     -0.000199     -0.000247
      8.66145      1.11926      6.14396        -0.000352      0.000247      0.000199
      8.54434      6.01884      1.18864         0.000111     -0.000066     -0.000021
      8.54434      3.66782      8.55317         0.000111      0.000021      0.000066
      1.15186      6.07871      8.49330         0.000092      0.000177     -0.000177
      1.34881      3.75213      1.10434         0.000182     -0.000105      0.000105
      5.95852      1.14095      8.53660        -0.000105     -0.000166      0.000181
      6.12725      8.45751      1.23646         0.000112      0.000096      0.000080
      3.67097      1.03876      1.24448        -0.000394      0.000344      0.000425
      3.83447      8.32968      8.57528         0.000040      0.000063      0.000146
      5.95852      6.03540      3.71551        -0.000105     -0.000181      0.000166
      6.12725      3.62001      6.11449         0.000112     -0.000080     -0.000096
      3.83447      5.99672      6.24233         0.000040     -0.000146     -0.000063
      3.67097      3.61198      3.81770        -0.000394     -0.000425     -0.000344
      7.33197      7.25261      7.31939         0.000150      0.000117     -0.000117
      7.18680      2.47250      2.38396         0.000281     -0.000016      0.000016
      2.40539      7.25126      2.51608         0.000070     -0.000022      0.000017
      2.40539      2.34038      7.32074         0.000070     -0.000017      0.000022
      0.29107      9.51518      9.63459        -0.000142     -0.000017      0.000251
      0.29107      4.93741      5.05682        -0.000142     -0.000251      0.000017
      5.24225      9.67645      4.89555         0.000082     -0.000106      0.000106
      4.93811      4.65891      0.19755         0.000126      0.000061     -0.000061
 -----------------------------------------------------------------------------------
    total drift:                               -0.022327     -0.005862      0.005849


--------------------------------------------------------------------------------------------------------



  FREE ENERGIE OF THE ION-ELECTRON SYSTEM (eV)
  ---------------------------------------------------
  free  energy   TOTEN  =      -271.99260205 eV

  energy  without entropy=     -271.99260205  energy(sigma->0) =     -271.99260205
 
 d Force = 0.8009751E-06[-0.539E-06, 0.214E-05]  d Energy = 0.5113931E-05-0.431E-05
 d Force = 0.1663213E-01[ 0.166E-01, 0.166E-01]  d Ewald  = 0.1663298E-01-0.851E-06


--------------------------------------------------------------------------------------------------------


    POTLOK:  cpu time      0.4488: real time      0.4504


--------------------------------------------------------------------------------------------------------


 stress matrix after NEB project (eV)
     -1.03851      0.37717     -0.37717
      0.37717      0.51147      5.09488
     -0.37717      5.09488      0.51147
  FORCES: max atom, RMS     0.000872    0.000347
  FORCE total and by dimension    0.002504    0.000636
  Stress total and by dimension    7.354345    5.094884


--------------------------------------------------------------------------------------------------------


  
 reached required accuracy - stopping structural energy minimisation
     LOOP+:  cpu time      7.9505: real time      8.1677
    4ORBIT:  cpu time      0.0000: real time      0.0000

 total amount of memory used by VASP MPI-rank0    46921. kBytes
=======================================================================

   base      :      30000. kBytes
   nonlr-proj:       6388. kBytes
   fftplans  :       1747. kBytes
   grid      :       5278. kBytes
   one-center:         62. kBytes
   wavefun   :       3446. kBytes
 
  
  
 General timing and accounting informations for this job:
 ========================================================
  
                  Total CPU time used (sec):      103.469
                            User time (sec):      101.891
                          System time (sec):        1.578
                         Elapsed time (sec):      107.817
  
                   Maximum memory used (kb):      394056.
                   Average memory used (kb):          N/A
  
                          Minor page faults:        72646
                          Major page faults:          126
                 Voluntary context switches:         7142
