<?xml version="1.0" encoding="ISO-8859-1"?>
<modeling>
 <generator>
  <i name="program" type="string">vasp </i>
  <i name="version" type="string">6.4.1  </i>
  <i name="subversion" type="string">05Apr23 (build Jun 07 2023 15:38:11) complex                          parallel </i>
  <i name="platform" type="string">LinuxIFC </i>
  <i name="date" type="string">2023 10 16 </i>
  <i name="time" type="string">22:18:20 </i>
 </generator>
 <incar>
  <i type="string" name="PREC">Accu</i>
  <i type="string" name="ALGO">F</i>
  <i type="logical" name="LDIAG"> T  </i>
  <i type="int" name="ISPIN">     2</i>
  <i type="int" name="NELM">   100</i>
  <i type="int" name="NELMDL">   -10</i>
  <i type="int" name="IBRION">     2</i>
  <i name="EDIFF">      0.00000100</i>
  <i name="EDIFFG">     -0.00100000</i>
  <i type="int" name="NSW">  1000</i>
  <i type="int" name="ISIF">     2</i>
  <i name="ENCUT">    520.00000000</i>
  <i name="POTIM">      0.20000000</i>
  <i type="string" name="LREAL">Auto</i>
  <i type="logical" name="LPLANE"> T  </i>
  <i type="int" name="ISMEAR">     0</i>
  <i name="SIGMA">      0.03000000</i>
  <i type="int" name="LMAXMIX">     4</i>
  <i type="logical" name="LWAVE"> F  </i>
  <i type="logical" name="LCHARG"> F  </i>
  <i type="logical" name="LASPH"> T  </i>
  <i type="string" name="GGA">PE</i>
  <i type="int" name="IVDW">    12</i>
 </incar>
 <primitive_cell>
  <structure name="primitive_cell" >
   <crystal>
    <varray name="basis" >
     <v>       9.71553889       0.00000000       0.00000000 </v>
     <v>       0.00000000       9.71553889       0.00000000 </v>
     <v>       0.00000000       0.00000000       9.71553889 </v>
    </varray>
    <i name="volume">    917.06619155 </i>
    <varray name="rec_basis" >
     <v>       0.10292790       0.00000000       0.00000000 </v>
     <v>       0.00000000       0.10292790       0.00000000 </v>
     <v>       0.00000000       0.00000000       0.10292790 </v>
    </varray>
   </crystal>
   <varray name="positions" >
    <v>       0.97114040       0.26787329       0.23199230 </v>
    <v>       0.98448352       0.76798881       0.73187679 </v>
    <v>       0.02493398       0.18918654       0.83689402 </v>
    <v>       0.02493398       0.66297157       0.31067905 </v>
    <v>       0.33709802       0.30018998       0.96847768 </v>
    <v>       0.21701371       0.77576291       0.02808057 </v>
    <v>       0.68553136       0.29924828       0.01418882 </v>
    <v>       0.82510036       0.81492351       0.97515443 </v>
    <v>       0.17984045       0.97166917       0.20252610 </v>
    <v>       0.22372622       0.01143588       0.80965211 </v>
    <v>       0.70122093       0.97495322       0.70798743 </v>
    <v>       0.78879708       0.02465845       0.22684945 </v>
    <v>       0.22372622       0.69021349       0.48842971 </v>
    <v>       0.17984045       0.29733949       0.52819642 </v>
    <v>       0.70122093       0.79187816       0.52491237 </v>
    <v>       0.78879708       0.27301615       0.47520714 </v>
    <v>       0.21701371       0.47178502       0.72410269 </v>
    <v>       0.33709802       0.53138791       0.19967561 </v>
    <v>       0.68553136       0.48567677       0.20061732 </v>
    <v>       0.82510036       0.52471117       0.68494208 </v>
    <v>       0.46615119       0.17821545       0.67378933 </v>
    <v>       0.46615119       0.82607626       0.32165015 </v>
    <v>       0.52315349       0.17588317       0.32398243 </v>
    <v>       0.54848328       0.65584023       0.84402536 </v>
    <v>       0.50373796       0.49373689       0.51133441 </v>
    <v>       0.50373796       0.98853119       0.00612870 </v>
    <v>       0.00286318       0.50076713       0.99909846 </v>
    <v>       0.00948961       0.99822195       0.50164364 </v>
    <v>       0.15165199       0.88822196       0.61164363 </v>
    <v>       0.11260468       0.12906627       0.37079932 </v>
    <v>       0.89151042       0.86748340       0.38466870 </v>
    <v>       0.89151042       0.11519689       0.63238220 </v>
    <v>       0.87945674       0.61950094       0.12234353 </v>
    <v>       0.87945674       0.37752206       0.88036465 </v>
    <v>       0.11856591       0.62565705       0.87420854 </v>
    <v>       0.13881667       0.38619184       0.11367376 </v>
    <v>       0.61329950       0.11743078       0.87865316 </v>
    <v>       0.63065598       0.87051289       0.12725489 </v>
    <v>       0.37784179       0.10691291       0.12807656 </v>
    <v>       0.39467863       0.85735889       0.88262912 </v>
    <v>       0.61329950       0.62121243       0.38243481 </v>
    <v>       0.63065598       0.37261071       0.62935270 </v>
    <v>       0.39467863       0.61723647       0.64250671 </v>
    <v>       0.37784179       0.37178904       0.39295268 </v>
    <v>       0.75467669       0.74649650       0.75336909 </v>
    <v>       0.73971080       0.25449125       0.24537434 </v>
    <v>       0.24758681       0.74635886       0.25897027 </v>
    <v>       0.24758681       0.24089532       0.75350673 </v>
    <v>       0.02999136       0.97936613       0.99164303 </v>
    <v>       0.02999136       0.50822257       0.52049946 </v>
    <v>       0.53959081       0.99599012       0.50387547 </v>
    <v>       0.50827061       0.47953110       0.02033450 </v>
   </varray>
  </structure>
  <varray name="primitive_index" >
   <v type="int" >        1 </v>
   <v type="int" >        2 </v>
   <v type="int" >        3 </v>
   <v type="int" >        4 </v>
   <v type="int" >        5 </v>
   <v type="int" >        6 </v>
   <v type="int" >        7 </v>
   <v type="int" >        8 </v>
   <v type="int" >        9 </v>
   <v type="int" >       10 </v>
   <v type="int" >       11 </v>
   <v type="int" >       12 </v>
   <v type="int" >       13 </v>
   <v type="int" >       14 </v>
   <v type="int" >       15 </v>
   <v type="int" >       16 </v>
   <v type="int" >       17 </v>
   <v type="int" >       18 </v>
   <v type="int" >       19 </v>
   <v type="int" >       20 </v>
   <v type="int" >       21 </v>
   <v type="int" >       22 </v>
   <v type="int" >       23 </v>
   <v type="int" >       24 </v>
   <v type="int" >       25 </v>
   <v type="int" >       26 </v>
   <v type="int" >       27 </v>
   <v type="int" >       28 </v>
   <v type="int" >       29 </v>
   <v type="int" >       30 </v>
   <v type="int" >       31 </v>
   <v type="int" >       32 </v>
   <v type="int" >       33 </v>
   <v type="int" >       34 </v>
   <v type="int" >       35 </v>
   <v type="int" >       36 </v>
   <v type="int" >       37 </v>
   <v type="int" >       38 </v>
   <v type="int" >       39 </v>
   <v type="int" >       40 </v>
   <v type="int" >       41 </v>
   <v type="int" >       42 </v>
   <v type="int" >       43 </v>
   <v type="int" >       44 </v>
   <v type="int" >       45 </v>
   <v type="int" >       46 </v>
   <v type="int" >       47 </v>
   <v type="int" >       48 </v>
   <v type="int" >       49 </v>
   <v type="int" >       50 </v>
   <v type="int" >       51 </v>
   <v type="int" >       52 </v>
  </varray>
 </primitive_cell>
 <kpoints>
  <generation param="Monkhorst-Pack">
   <v type="int" name="divisions">       2        2        2 </v>
   <v name="usershift">      0.00000000       0.00000000       0.00000000 </v>
   <v name="genvec1">      0.50000000       0.00000000       0.00000000 </v>
   <v name="genvec2">      0.00000000       0.50000000       0.00000000 </v>
   <v name="genvec3">      0.00000000       0.00000000       0.50000000 </v>
   <v name="shift">      0.50000000       0.50000000       0.50000000 </v>
  </generation>
  <varray name="kpointlist" >
   <v>       0.25000000       0.25000000       0.25000000 </v>
   <v>      -0.25000000      -0.25000000       0.25000000 </v>
   <v>       0.25000000      -0.25000000       0.25000000 </v>
  </varray>
  <varray name="weights" >
   <v>       0.50000000 </v>
   <v>       0.25000000 </v>
   <v>       0.25000000 </v>
  </varray>
 </kpoints>
 <parameters>
  <separator name="general" >
   <i type="string" name="SYSTEM">unknown system</i>
   <i type="logical" name="LCOMPAT"> F  </i>
  </separator>
  <separator name="electronic" >
   <i type="string" name="PREC">accu</i>
   <i name="ENMAX">    520.00000000</i>
   <i name="ENAUG">   1041.69900000</i>
   <i name="EDIFF">      0.00000100</i>
   <i type="int" name="IALGO">    68</i>
   <i type="int" name="IWAVPR">    11</i>
   <i type="int" name="NBANDS">   176</i>
   <i type="int" name="NBANDSLOW">    -1</i>
   <i type="int" name="NBANDSHIGH">    -1</i>
   <i name="NELECT">    240.00000000</i>
   <i type="int" name="TURBO">     0</i>
   <i type="int" name="IRESTART">     0</i>
   <i type="int" name="NREBOOT">     0</i>
   <i type="int" name="NMIN">     0</i>
   <i name="EREF">      0.00000000</i>
   <separator name="electronic smearing" >
    <i type="int" name="ISMEAR">     0</i>
    <i name="SIGMA">      0.03000000</i>
    <i name="KSPACING">      0.50000000</i>
    <i type="logical" name="KGAMMA"> T  </i>
    <i type="logical" name="KBLOWUP"> T  </i>
   </separator>
   <separator name="electronic projectors" >
    <i type="logical" name="LREAL"> T  </i>
    <v name="ROPT">     -0.00025000     -0.00025000     -0.00025000     -0.00025000</v>
    <i type="int" name="LMAXPAW">  -100</i>
    <i type="int" name="LMAXMIX">     4</i>
    <i type="logical" name="NLSPLINE"> F  </i>
   </separator>
   <separator name="electronic startup" >
    <i type="int" name="ISTART">     0</i>
    <i type="int" name="ICHARG">     2</i>
    <i type="int" name="INIWAV">     1</i>
   </separator>
   <separator name="electronic spin" >
    <i type="int" name="ISPIN">     2</i>
    <i type="logical" name="LNONCOLLINEAR"> F  </i>
    <v name="MAGMOM">      1.00000000      1.00000000      1.00000000      1.00000000      1.00000000      1.00000000      1.00000000      1.00000000      1.00000000      1.00000000      1.00000000      1.00000000      1.00000000      1.00000000      1.00000000      1.00000000      1.00000000      1.00000000      1.00000000      1.00000000
      1.00000000      1.00000000      1.00000000      1.00000000      1.00000000      1.00000000      1.00000000      1.00000000      1.00000000      1.00000000      1.00000000      1.00000000      1.00000000      1.00000000      1.00000000      1.00000000      1.00000000      1.00000000      1.00000000      1.00000000
      1.00000000      1.00000000      1.00000000      1.00000000      1.00000000      1.00000000      1.00000000      1.00000000      1.00000000      1.00000000      1.00000000      1.00000000</v>
    <i name="NUPDOWN">     -1.00000000</i>
    <i type="logical" name="LSORBIT"> F  </i>
    <v name="SAXIS">      0.00000000      0.00000000      1.00000000</v>
    <i type="logical" name="LSPIRAL"> F  </i>
    <v name="QSPIRAL">      0.00000000      0.00000000      0.00000000</v>
    <i type="logical" name="LZEROZ"> F  </i>
   </separator>
   <separator name="electronic exchange-correlation" >
    <i type="logical" name="LASPH"> T  </i>
    <i type="logical" name="LMETAGGA"> F  </i>
   </separator>
   <separator name="electronic convergence" >
    <i type="int" name="NELM">   100</i>
    <i type="int" name="NELMDL">   -10</i>
    <i type="int" name="NELMIN">     2</i>
    <i name="ENINI">    520.00000000</i>
    <separator name="electronic convergence detail" >
     <i type="logical" name="LDIAG"> T  </i>
     <i type="logical" name="LSUBROT"> F  </i>
     <i name="WEIMIN">      0.00100000</i>
     <i name="EBREAK">      0.00000000</i>
     <i name="DEPER">      0.30000000</i>
     <i type="int" name="NRMM">     4</i>
     <i name="TIME">      0.40000000</i>
    </separator>
   </separator>
   <separator name="electronic mixer" >
    <i name="AMIX">      0.40000000</i>
    <i name="BMIX">      1.00000000</i>
    <i name="AMIN">      0.10000000</i>
    <i name="AMIX_MAG">      1.60000000</i>
    <i name="BMIX_MAG">      1.00000000</i>
    <separator name="electronic mixer details" >
     <i type="int" name="IMIX">     4</i>
     <i type="logical" name="MIXFIRST"> F  </i>
     <i type="int" name="MAXMIX">   -45</i>
     <i name="WC">    100.00000000</i>
     <i type="int" name="INIMIX">     1</i>
     <i type="int" name="MIXPRE">     1</i>
     <i type="int" name="MREMOVE">     5</i>
    </separator>
   </separator>
   <separator name="electronic dipolcorrection" >
    <i type="logical" name="LDIPOL"> F  </i>
    <i type="logical" name="LMONO"> F  </i>
    <i type="int" name="IDIPOL">     0</i>
    <i name="EPSILON">      1.00000000</i>
    <v name="DIPOL">   -100.00000000   -100.00000000   -100.00000000</v>
    <i name="EFIELD">      0.00000000</i>
   </separator>
  </separator>
  <separator name="grids" >
   <i type="int" name="NGX">    72</i>
   <i type="int" name="NGY">    72</i>
   <i type="int" name="NGZ">    72</i>
   <i type="int" name="NGXF">   144</i>
   <i type="int" name="NGYF">   144</i>
   <i type="int" name="NGZF">   144</i>
   <i type="logical" name="ADDGRID"> F  </i>
  </separator>
  <separator name="ionic" >
   <i type="int" name="NSW">  1000</i>
   <i type="int" name="IBRION">     2</i>
   <i type="int" name="MDALGO">     0</i>
   <i type="int" name="ISIF">     2</i>
   <i name="PSTRESS">      0.00000000</i>
   <i name="EDIFFG">     -0.00100000</i>
   <i type="int" name="NFREE">     1</i>
   <i name="POTIM">      0.20000000</i>
   <i name="SMASS">     -3.00000000</i>
   <i name="SCALEE">      1.00000000</i>
  </separator>
  <separator name="ionic md" >
   <i name="TEBEG">      0.00010000</i>
   <i name="TEEND">      0.00010000</i>
   <i type="int" name="NBLOCK">     1</i>
   <i type="int" name="KBLOCK">  1000</i>
   <i type="int" name="NPACO">   256</i>
   <i name="APACO">     10.00000000</i>
  </separator>
  <separator name="symmetry" >
   <i type="int" name="ISYM">     2</i>
   <i name="SYMPREC">      0.00001000</i>
  </separator>
  <separator name="dos" >
   <i type="int" name="LORBIT">     0</i>
   <v name="RWIGS">     -1.00000000     -1.00000000     -1.00000000     -1.00000000</v>
   <i type="int" name="NEDOS">   301</i>
   <i name="EMIN">     10.00000000</i>
   <i name="EMAX">    -10.00000000</i>
   <i name="EFERMI">      0.00000000</i>
  </separator>
  <separator name="writing" >
   <i type="int" name="NWRITE">     2</i>
   <i type="logical" name="LWAVE"> F  </i>
   <i type="logical" name="LDOWNSAMPLE"> F  </i>
   <i type="logical" name="LCHARG"> F  </i>
   <i type="logical" name="LPARD"> F  </i>
   <i type="logical" name="LVTOT"> F  </i>
   <i type="logical" name="LVHAR"> F  </i>
   <i type="logical" name="LELF"> F  </i>
   <i type="logical" name="LOPTICS"> F  </i>
   <v name="STM">      0.00000000      0.00000000      0.00000000      0.00000000      0.00000000      0.00000000      0.00000000</v>
  </separator>
  <separator name="performance" >
   <i type="int" name="NPAR">     4</i>
   <i type="int" name="NSIM">     4</i>
   <i type="int" name="NBLK">    -1</i>
   <i type="logical" name="LPLANE"> T  </i>
   <i type="logical" name="LSCALAPACK"> T  </i>
   <i type="logical" name="LSCAAWARE"> F  </i>
   <i type="logical" name="LSCALU"> F  </i>
   <i type="logical" name="LASYNC"> F  </i>
   <i type="logical" name="LORBITALREAL"> F  </i>
  </separator>
  <separator name="miscellaneous" >
   <i type="int" name="IDIOT">     3</i>
   <i type="int" name="PHON_NSTRUCT">    -1</i>
   <i type="logical" name="LMUSIC"> F  </i>
   <v name="POMASS">      7.01000000     30.97400000     32.06600000     35.45300000</v>
   <v name="DARWINR">      0.00000000      0.00000000      0.00000000      0.00000000</v>
   <v name="DARWINV">      1.00000000      1.00000000      1.00000000      1.00000000</v>
   <i type="logical" name="LCORR"> T  </i>
  </separator>
  <i type="logical" name="GGA_COMPAT"> T  </i>
  <i type="logical" name="LBERRY"> F  </i>
  <i type="int" name="ICORELEVEL">     0</i>
  <i type="logical" name="LDAU"> F  </i>
  <i type="int" name="I_CONSTRAINED_M">     0</i>
  <separator name="electronic exchange-correlation" >
   <i type="string" name="GGA">PE</i>
   <i type="int" name="VOSKOWN">     0</i>
   <i type="logical" name="LHFCALC"> F  </i>
   <i type="string" name="PRECFOCK"></i>
   <i type="logical" name="LSYMGRAD"> F  </i>
   <i type="logical" name="LHFONE"> F  </i>
   <i type="logical" name="LRHFCALC"> F  </i>
   <i type="logical" name="LTHOMAS"> F  </i>
   <i type="logical" name="LMODELHF"> F  </i>
   <i type="logical" name="LFOCKACE"> F  </i>
   <i name="ENCUT4O">     -1.00000000</i>
   <i type="int" name="EXXOEP">     0</i>
   <i type="int" name="FOURORBIT">     0</i>
   <i name="AEXX">      0.00000000</i>
   <i name="HFALPHA">      0.00000000</i>
   <i name="MCALPHA">      0.00000000</i>
   <i name="ALDAX">      1.00000000</i>
   <i name="AGGAX">      1.00000000</i>
   <i name="ALDAC">      1.00000000</i>
   <i name="AGGAC">      1.00000000</i>
   <i type="int" name="NKREDX">     1</i>
   <i type="int" name="NKREDY">     1</i>
   <i type="int" name="NKREDZ">     1</i>
   <i type="logical" name="SHIFTRED"> F  </i>
   <i type="logical" name="ODDONLY"> F  </i>
   <i type="logical" name="EVENONLY"> F  </i>
   <i type="int" name="LMAXFOCK">     0</i>
   <i type="int" name="NMAXFOCKAE">     0</i>
   <i type="logical" name="LFOCKAEDFT"> F  </i>
   <i name="HFSCREEN">      0.00000000</i>
   <i name="HFSCREENC">      0.00000000</i>
   <i type="int" name="NBANDSGWLOW">     0</i>
  </separator>
  <separator name="vdW DFT" >
   <i type="logical" name="LUSE_VDW"> F  </i>
   <i type="int" name="IVDW_NL">     1</i>
   <i type="logical" name="LSPIN_VDW"> F  </i>
   <i name="Zab_VDW">     -0.84910000</i>
   <i name="PARAM1">      0.12340000</i>
   <i name="PARAM2">      1.00000000</i>
   <i name="PARAM3">      0.00000000</i>
  </separator>
  <separator name="model GW" >
   <i type="int" name="MODEL_GW">     0</i>
   <i name="MODEL_EPS0">     10.58153298</i>
   <i name="MODEL_ALPHA">      1.00000000</i>
  </separator>
  <separator name="linear response parameters" >
   <i type="logical" name="LEPSILON"> F  </i>
   <i type="logical" name="LRPA"> F  </i>
   <i type="logical" name="LNABLA"> F  </i>
   <i type="logical" name="LVEL"> F  </i>
   <i name="CSHIFT">      0.10000000</i>
   <i name="OMEGAMAX">     -1.00000000</i>
   <i name="DEG_THRESHOLD">      0.00200000</i>
   <i name="RTIME">     -0.10000000</i>
   <i name="WPLASMAI">      0.00000000</i>
   <v name="DFIELD">      0.00000000      0.00000000      0.00000000</v>
   <v name="WPLASMA">      0.00000000      0.00000000      0.00000000      0.00000000      0.00000000      0.00000000      0.00000000      0.00000000      0.00000000</v>
  </separator>
  <separator name="orbital magnetization" >
   <i type="logical" name="NUCIND"> F  </i>
   <v name="MAGPOS">      0.00000000      0.00000000      0.00000000</v>
   <i type="logical" name="LNICSALL"> T  </i>
   <i type="logical" name="ORBITALMAG"> F  </i>
   <i type="logical" name="LMAGBLOCH"> F  </i>
   <i type="logical" name="LCHIMAG"> F  </i>
   <i type="logical" name="LGAUGE"> T  </i>
   <i type="int" name="MAGATOM">     0</i>
   <v name="MAGDIPOL">      0.00000000      0.00000000      0.00000000</v>
   <v name="AVECCONST">      0.00000000      0.00000000      0.00000000</v>
  </separator>
  <separator name="response functions" >
   <i type="logical" name="LALL_IN_ONE"> F  </i>
   <i type="int" name="IALL_IN_ONE">    -1</i>
   <i type="int" name="NBANDS_WAVE">    -1</i>
   <i type="logical" name="LFINITE_TEMPERATURE"> F  </i>
   <i type="logical" name="LADDER"> F  </i>
   <i type="logical" name="LRPAFORCE"> F  </i>
   <i type="logical" name="LFXC"> F  </i>
   <i type="logical" name="LHARTREE"> T  </i>
   <i type="int" name="IBSE">     0</i>
   <v type="int" name="KPOINT">    -1     0     0     0</v>
   <i type="logical" name="LTCTC"> F  </i>
   <i type="logical" name="LTCTE"> F  </i>
   <i type="logical" name="LTETE"> F  </i>
   <i type="logical" name="LTRIPLET"> F  </i>
   <i type="logical" name="LFXCEPS"> F  </i>
   <i type="logical" name="LFXHEG"> F  </i>
   <i type="int" name="NATURALO">     2</i>
   <i type="logical" name="LHOLEGF"> F  </i>
   <i type="logical" name="L2ORDER"> F  </i>
   <i type="logical" name="LDMP1"> F  </i>
   <i type="logical" name="LMP2LT"> F  </i>
   <i type="logical" name="LSMP2LT"> F  </i>
   <i type="logical" name="LGWLF"> F  </i>
   <i name="ENCUTGW">     -1.60000002</i>
   <i name="ENCUTGWSOFT">     -1.60000002</i>
   <i name="ENCUTLF">     -1.00000000</i>
   <i type="logical" name="LESF_SPLINES"> F  </i>
   <i type="int" name="LMAXMP2">    -1</i>
   <i name="SCISSOR">      0.00000000</i>
   <i type="int" name="NOMEGA">     0</i>
   <i type="int" name="NOMEGAR">     0</i>
   <i type="int" name="NBANDSGW">    -1</i>
   <i type="int" name="NBANDSO">    -1</i>
   <i type="int" name="NBANDSV">    -1</i>
   <i type="int" name="NELMGW">     1</i>
   <i type="int" name="NELMHF">     1</i>
   <i type="int" name="DIM">     3</i>
   <i type="int" name="IESPILON">     4</i>
   <i type="int" name="ANTIRES">     0</i>
   <i name="OMEGAMAX">    -30.00000000</i>
   <i name="OMEGAMIN">    -30.00000000</i>
   <i name="OMEGATL">   -200.00000000</i>
   <i type="int" name="OMEGAGRID">     0</i>
   <i name="CSHIFT">     -0.10000000</i>
   <i type="logical" name="LSELFENERGY"> F  </i>
   <i type="logical" name="LSPECTRAL"> F  </i>
   <i type="logical" name="LSPECTRALGW"> F  </i>
   <i type="logical" name="LSINGLES"> F  </i>
   <i type="logical" name="LFERMIGW"> F  </i>
   <i type="logical" name="ODDONLYGW"> F  </i>
   <i type="logical" name="EVENONLYGW"> F  </i>
   <i type="int" name="NKREDLFX">     1</i>
   <i type="int" name="NKREDLFY">     1</i>
   <i type="int" name="NKREDLFZ">     1</i>
   <i type="int" name="MAXMEM">  2800</i>
   <i type="int" name="TELESCOPE">     0</i>
   <i type="int" name="NTAUPAR">    -1</i>
   <i type="int" name="NOMEGAPAR">    -1</i>
   <i name="DAMP_NEWTON">      0.80000001</i>
   <i name="LAMBDA">      1.00000000</i>
  </separator>
  <separator name="External order field" >
   <i name="OFIELD_KAPPA">      0.00000000</i>
   <v name="OFIELD_K">      0.00000000      0.00000000      0.00000000</v>
   <i name="OFIELD_Q6_NEAR">      0.00000000</i>
   <i name="OFIELD_Q6_FAR">      0.00000000</i>
   <i name="OFIELD_A">      0.00000000</i>
  </separator>
  <separator name="optional k-points parameters" >
   <i type="int" name="KPOINTS_OPT_MODE">     1</i>
   <i type="logical" name="LKPOINTS_OPT"> F  </i>
  </separator>
 </parameters>
 <atominfo>
  <atoms>      52 </atoms>
  <types>       4 </types>
  <array name="atoms" >
   <dimension dim="1">ion</dimension>
   <field type="string">element</field>
   <field type="int">atomtype</field>
   <set>
    <rc><c>Li</c><c>   1</c></rc>
    <rc><c>Li</c><c>   1</c></rc>
    <rc><c>Li</c><c>   1</c></rc>
    <rc><c>Li</c><c>   1</c></rc>
    <rc><c>Li</c><c>   1</c></rc>
    <rc><c>Li</c><c>   1</c></rc>
    <rc><c>Li</c><c>   1</c></rc>
    <rc><c>Li</c><c>   1</c></rc>
    <rc><c>Li</c><c>   1</c></rc>
    <rc><c>Li</c><c>   1</c></rc>
    <rc><c>Li</c><c>   1</c></rc>
    <rc><c>Li</c><c>   1</c></rc>
    <rc><c>Li</c><c>   1</c></rc>
    <rc><c>Li</c><c>   1</c></rc>
    <rc><c>Li</c><c>   1</c></rc>
    <rc><c>Li</c><c>   1</c></rc>
    <rc><c>Li</c><c>   1</c></rc>
    <rc><c>Li</c><c>   1</c></rc>
    <rc><c>Li</c><c>   1</c></rc>
    <rc><c>Li</c><c>   1</c></rc>
    <rc><c>Li</c><c>   1</c></rc>
    <rc><c>Li</c><c>   1</c></rc>
    <rc><c>Li</c><c>   1</c></rc>
    <rc><c>Li</c><c>   1</c></rc>
    <rc><c>P </c><c>   2</c></rc>
    <rc><c>P </c><c>   2</c></rc>
    <rc><c>P </c><c>   2</c></rc>
    <rc><c>P </c><c>   2</c></rc>
    <rc><c>S </c><c>   3</c></rc>
    <rc><c>S </c><c>   3</c></rc>
    <rc><c>S </c><c>   3</c></rc>
    <rc><c>S </c><c>   3</c></rc>
    <rc><c>S </c><c>   3</c></rc>
    <rc><c>S </c><c>   3</c></rc>
    <rc><c>S </c><c>   3</c></rc>
    <rc><c>S </c><c>   3</c></rc>
    <rc><c>S </c><c>   3</c></rc>
    <rc><c>S </c><c>   3</c></rc>
    <rc><c>S </c><c>   3</c></rc>
    <rc><c>S </c><c>   3</c></rc>
    <rc><c>S </c><c>   3</c></rc>
    <rc><c>S </c><c>   3</c></rc>
    <rc><c>S </c><c>   3</c></rc>
    <rc><c>S </c><c>   3</c></rc>
    <rc><c>S </c><c>   3</c></rc>
    <rc><c>S </c><c>   3</c></rc>
    <rc><c>S </c><c>   3</c></rc>
    <rc><c>S </c><c>   3</c></rc>
    <rc><c>Cl</c><c>   4</c></rc>
    <rc><c>Cl</c><c>   4</c></rc>
    <rc><c>Cl</c><c>   4</c></rc>
    <rc><c>Cl</c><c>   4</c></rc>
   </set>
  </array>
  <array name="atomtypes" >
   <dimension dim="1">type</dimension>
   <field type="int">atomspertype</field>
   <field type="string">element</field>
   <field>mass</field>
   <field>valence</field>
   <field type="string">pseudopotential</field>
   <set>
    <rc><c>  24</c><c>Li</c><c>      7.01000000</c><c>      3.00000000</c><c>  PAW_PBE Li_sv_GW 25Mar2010            </c></rc>
    <rc><c>   4</c><c>P </c><c>     30.97400000</c><c>      5.00000000</c><c>  PAW_PBE P_GW 19Mar2012                </c></rc>
    <rc><c>  20</c><c>S </c><c>     32.06600000</c><c>      6.00000000</c><c>  PAW_PBE S_GW 19Mar2012                </c></rc>
    <rc><c>   4</c><c>Cl</c><c>     35.45300000</c><c>      7.00000000</c><c>  PAW_PBE Cl_GW 19Mar2012               </c></rc>
   </set>
  </array>
 </atominfo>
 <structure name="initialpos" >
  <crystal>
   <varray name="basis" >
    <v>       9.71553889       0.00000000       0.00000000 </v>
    <v>       0.00000000       9.71553889       0.00000000 </v>
    <v>       0.00000000       0.00000000       9.71553889 </v>
   </varray>
   <i name="volume">    917.06619155 </i>
   <varray name="rec_basis" >
    <v>       0.10292790       0.00000000       0.00000000 </v>
    <v>       0.00000000       0.10292790       0.00000000 </v>
    <v>       0.00000000       0.00000000       0.10292790 </v>
   </varray>
  </crystal>
  <varray name="positions" >
   <v>       0.97114040       0.26787329       0.23199230 </v>
   <v>       0.98448352       0.76798881       0.73187679 </v>
   <v>       0.02493398       0.18918654       0.83689402 </v>
   <v>       0.02493398       0.66297157       0.31067905 </v>
   <v>       0.33709802       0.30018998       0.96847768 </v>
   <v>       0.21701371       0.77576291       0.02808057 </v>
   <v>       0.68553136       0.29924828       0.01418882 </v>
   <v>       0.82510036       0.81492351       0.97515443 </v>
   <v>       0.17984045       0.97166917       0.20252610 </v>
   <v>       0.22372622       0.01143588       0.80965211 </v>
   <v>       0.70122093       0.97495322       0.70798743 </v>
   <v>       0.78879708       0.02465845       0.22684945 </v>
   <v>       0.22372622       0.69021349       0.48842971 </v>
   <v>       0.17984045       0.29733949       0.52819642 </v>
   <v>       0.70122093       0.79187816       0.52491237 </v>
   <v>       0.78879708       0.27301615       0.47520714 </v>
   <v>       0.21701371       0.47178502       0.72410269 </v>
   <v>       0.33709802       0.53138791       0.19967561 </v>
   <v>       0.68553136       0.48567677       0.20061732 </v>
   <v>       0.82510036       0.52471117       0.68494208 </v>
   <v>       0.46615119       0.17821545       0.67378933 </v>
   <v>       0.46615119       0.82607626       0.32165015 </v>
   <v>       0.52315349       0.17588317       0.32398243 </v>
   <v>       0.54848328       0.65584023       0.84402536 </v>
   <v>       0.50373796       0.49373689       0.51133441 </v>
   <v>       0.50373796       0.98853119       0.00612870 </v>
   <v>       0.00286318       0.50076713       0.99909846 </v>
   <v>       0.00948961       0.99822195       0.50164364 </v>
   <v>       0.15165199       0.88822196       0.61164363 </v>
   <v>       0.11260468       0.12906627       0.37079932 </v>
   <v>       0.89151042       0.86748340       0.38466870 </v>
   <v>       0.89151042       0.11519689       0.63238220 </v>
   <v>       0.87945674       0.61950094       0.12234353 </v>
   <v>       0.87945674       0.37752206       0.88036465 </v>
   <v>       0.11856591       0.62565705       0.87420854 </v>
   <v>       0.13881667       0.38619184       0.11367376 </v>
   <v>       0.61329950       0.11743078       0.87865316 </v>
   <v>       0.63065598       0.87051289       0.12725489 </v>
   <v>       0.37784179       0.10691291       0.12807656 </v>
   <v>       0.39467863       0.85735889       0.88262912 </v>
   <v>       0.61329950       0.62121243       0.38243481 </v>
   <v>       0.63065598       0.37261071       0.62935270 </v>
   <v>       0.39467863       0.61723647       0.64250671 </v>
   <v>       0.37784179       0.37178904       0.39295268 </v>
   <v>       0.75467669       0.74649650       0.75336909 </v>
   <v>       0.73971080       0.25449125       0.24537434 </v>
   <v>       0.24758681       0.74635886       0.25897027 </v>
   <v>       0.24758681       0.24089532       0.75350673 </v>
   <v>       0.02999136       0.97936613       0.99164303 </v>
   <v>       0.02999136       0.50822257       0.52049946 </v>
   <v>       0.53959081       0.99599012       0.50387547 </v>
   <v>       0.50827061       0.47953110       0.02033450 </v>
  </varray>
 </structure>
 <calculation>
  <scstep>
   <time name="dav">    1.67    1.81</time>
   <time name="total">    2.13    2.30</time>
   <energy>
    <i name="alphaZ">    296.00644553 </i>
    <i name="ewald">  -8730.31230384 </i>
    <i name="hartreedc">  -2157.26548464 </i>
    <i name="XCdc">    533.47383465 </i>
    <i name="pawpsdc">   8141.38806575 </i>
    <i name="pawaedc">  -8271.61346273 </i>
    <i name="eentropy">     -0.00823716 </i>
    <i name="bandstr">   -936.62246542 </i>
    <i name="atom">  12703.13999606 </i>
    <i name="e_fr_energy">   1578.18638820 </i>
    <i name="e_wo_entrp">   1578.19462536 </i>
    <i name="e_0_energy">   1578.19050678 </i>
   </energy>
  </scstep>
  <scstep>
   <time name="dav">    1.97    2.00</time>
   <time name="total">    1.97    2.00</time>
   <energy>
    <i name="e_fr_energy">    -56.59580828 </i>
    <i name="e_wo_entrp">    -56.59580828 </i>
    <i name="e_0_energy">    -56.59580828 </i>
   </energy>
  </scstep>
  <scstep>
   <time name="dav">    1.99    2.02</time>
   <time name="total">    1.99    2.02</time>
   <energy>
    <i name="e_fr_energy">   -230.03417087 </i>
    <i name="e_wo_entrp">   -230.03417087 </i>
    <i name="e_0_energy">   -230.03417087 </i>
   </energy>
  </scstep>
  <scstep>
   <time name="dav">    2.32    2.38</time>
   <time name="total">    2.32    2.38</time>
   <energy>
    <i name="e_fr_energy">   -241.90150637 </i>
    <i name="e_wo_entrp">   -241.90150637 </i>
    <i name="e_0_energy">   -241.90150637 </i>
   </energy>
  </scstep>
  <scstep>
   <time name="dav">    2.26    2.29</time>
   <time name="total">    2.26    2.30</time>
   <energy>
    <i name="e_fr_energy">   -242.17017375 </i>
    <i name="e_wo_entrp">   -242.17017375 </i>
    <i name="e_0_energy">   -242.17017375 </i>
   </energy>
  </scstep>
  <scstep>
   <time name="dav">    2.27    2.33</time>
   <time name="total">    2.27    2.33</time>
   <energy>
    <i name="e_fr_energy">   -242.17850885 </i>
    <i name="e_wo_entrp">   -242.17850885 </i>
    <i name="e_0_energy">   -242.17850885 </i>
   </energy>
  </scstep>
  <scstep>
   <time name="dav">    2.27    2.29</time>
   <time name="total">    2.27    2.29</time>
   <energy>
    <i name="e_fr_energy">   -242.17892638 </i>
    <i name="e_wo_entrp">   -242.17892638 </i>
    <i name="e_0_energy">   -242.17892638 </i>
   </energy>
  </scstep>
  <scstep>
   <time name="dav">    2.24    2.26</time>
   <time name="total">    2.24    2.26</time>
   <energy>
    <i name="e_fr_energy">   -242.17895310 </i>
    <i name="e_wo_entrp">   -242.17895310 </i>
    <i name="e_0_energy">   -242.17895310 </i>
   </energy>
  </scstep>
  <scstep>
   <time name="dav">    2.28    2.30</time>
   <time name="total">    2.28    2.30</time>
   <energy>
    <i name="e_fr_energy">   -242.17895493 </i>
    <i name="e_wo_entrp">   -242.17895493 </i>
    <i name="e_0_energy">   -242.17895493 </i>
   </energy>
  </scstep>
  <scstep>
   <time name="dav">    1.64    1.66</time>
   <time name="total">    1.86    1.93</time>
   <energy>
    <i name="e_fr_energy">   -242.17895502 </i>
    <i name="e_wo_entrp">   -242.17895502 </i>
    <i name="e_0_energy">   -242.17895502 </i>
   </energy>
  </scstep>
  <scstep>
   <time name="diag">    0.28    0.28</time>
   <time name="diis">    0.88    0.89</time>
   <time name="orth">    0.05    0.05</time>
   <time name="total">    1.85    1.95</time>
   <energy>
    <i name="e_fr_energy">   -234.62953989 </i>
    <i name="e_wo_entrp">   -234.62953989 </i>
    <i name="e_0_energy">   -234.62953989 </i>
   </energy>
  </scstep>
  <scstep>
   <time name="diag">    0.27    0.27</time>
   <time name="diis">    0.93    0.93</time>
   <time name="orth">    0.05    0.05</time>
   <time name="total">    1.81    1.87</time>
   <energy>
    <i name="e_fr_energy">   -255.97374676 </i>
    <i name="e_wo_entrp">   -255.97374676 </i>
    <i name="e_0_energy">   -255.97374676 </i>
   </energy>
  </scstep>
  <scstep>
   <time name="diag">    0.27    0.27</time>
   <time name="diis">    0.91    0.91</time>
   <time name="orth">    0.05    0.05</time>
   <time name="total">    1.80    1.85</time>
   <energy>
    <i name="e_fr_energy">   -258.45934069 </i>
    <i name="e_wo_entrp">   -258.45934069 </i>
    <i name="e_0_energy">   -258.45934069 </i>
   </energy>
  </scstep>
  <scstep>
   <time name="diag">    0.27    0.27</time>
   <time name="diis">    1.15    1.16</time>
   <time name="orth">    0.05    0.05</time>
   <time name="total">    2.04    2.08</time>
   <energy>
    <i name="e_fr_energy">   -258.65775797 </i>
    <i name="e_wo_entrp">   -258.65775797 </i>
    <i name="e_0_energy">   -258.65775797 </i>
   </energy>
  </scstep>
  <scstep>
   <time name="diag">    0.27    0.27</time>
   <time name="diis">    1.03    1.04</time>
   <time name="orth">    0.05    0.05</time>
   <time name="total">    1.91    1.95</time>
   <energy>
    <i name="e_fr_energy">   -258.62596900 </i>
    <i name="e_wo_entrp">   -258.62596900 </i>
    <i name="e_0_energy">   -258.62596900 </i>
   </energy>
  </scstep>
  <scstep>
   <time name="diag">    0.27    0.27</time>
   <time name="diis">    0.97    0.98</time>
   <time name="orth">    0.05    0.05</time>
   <time name="total">    1.85    1.89</time>
   <energy>
    <i name="e_fr_energy">   -258.64726019 </i>
    <i name="e_wo_entrp">   -258.64726019 </i>
    <i name="e_0_energy">   -258.64726019 </i>
   </energy>
  </scstep>
  <scstep>
   <time name="diag">    0.27    0.27</time>
   <time name="diis">    1.08    1.09</time>
   <time name="orth">    0.05    0.05</time>
   <time name="total">    1.96    1.99</time>
   <energy>
    <i name="e_fr_energy">   -258.65343205 </i>
    <i name="e_wo_entrp">   -258.65343205 </i>
    <i name="e_0_energy">   -258.65343205 </i>
   </energy>
  </scstep>
  <scstep>
   <time name="diag">    0.30    0.30</time>
   <time name="diis">    1.05    1.06</time>
   <time name="orth">    0.05    0.05</time>
   <time name="total">    1.95    1.98</time>
   <energy>
    <i name="e_fr_energy">   -258.65477021 </i>
    <i name="e_wo_entrp">   -258.65477021 </i>
    <i name="e_0_energy">   -258.65477021 </i>
   </energy>
  </scstep>
  <scstep>
   <time name="diag">    0.27    0.27</time>
   <time name="diis">    1.23    1.24</time>
   <time name="orth">    0.05    0.05</time>
   <time name="total">    2.11    2.13</time>
   <energy>
    <i name="e_fr_energy">   -258.65528904 </i>
    <i name="e_wo_entrp">   -258.65528904 </i>
    <i name="e_0_energy">   -258.65528904 </i>
   </energy>
  </scstep>
  <scstep>
   <time name="diag">    0.27    0.27</time>
   <time name="diis">    1.19    1.20</time>
   <time name="orth">    0.05    0.05</time>
   <time name="total">    2.08    2.10</time>
   <energy>
    <i name="e_fr_energy">   -258.65538499 </i>
    <i name="e_wo_entrp">   -258.65538499 </i>
    <i name="e_0_energy">   -258.65538499 </i>
   </energy>
  </scstep>
  <scstep>
   <time name="diag">    0.27    0.27</time>
   <time name="diis">    1.05    1.06</time>
   <time name="orth">    0.05    0.05</time>
   <time name="total">    1.92    1.94</time>
   <energy>
    <i name="e_fr_energy">   -258.65540514 </i>
    <i name="e_wo_entrp">   -258.65540514 </i>
    <i name="e_0_energy">   -258.65540514 </i>
   </energy>
  </scstep>
  <scstep>
   <time name="diag">    0.27    0.27</time>
   <time name="diis">    1.19    1.20</time>
   <time name="orth">    0.05    0.05</time>
   <time name="total">    2.07    2.09</time>
   <energy>
    <i name="e_fr_energy">   -258.65541255 </i>
    <i name="e_wo_entrp">   -258.65541255 </i>
    <i name="e_0_energy">   -258.65541255 </i>
   </energy>
  </scstep>
  <scstep>
   <time name="diag">    0.27    0.27</time>
   <time name="diis">    0.97    0.98</time>
   <time name="orth">    0.05    0.05</time>
   <time name="total">    1.84    1.86</time>
   <energy>
    <i name="e_fr_energy">   -258.65541242 </i>
    <i name="e_wo_entrp">   -258.65541242 </i>
    <i name="e_0_energy">   -258.65541242 </i>
   </energy>
  </scstep>
  <scstep>
   <time name="diag">    0.27    0.27</time>
   <time name="diis">    0.75    0.75</time>
   <time name="orth">    0.05    0.05</time>
   <time name="total">    1.52    1.53</time>
   <energy>
    <i name="alphaZ">    296.00644553 </i>
    <i name="ewald">  -8730.31230384 </i>
    <i name="hartreedc">  -2263.44838168 </i>
    <i name="XCdc">    537.56987786 </i>
    <i name="pawpsdc">   9835.11427917 </i>
    <i name="pawaedc">  -9979.27725481 </i>
    <i name="eentropy">     -0.00000000 </i>
    <i name="bandstr">  -2657.44806985 </i>
    <i name="atom">  12703.13999606 </i>
    <i name="e_fr_energy">   -258.65541155 </i>
    <i name="e_wo_entrp">   -258.65541155 </i>
    <i name="e_0_energy">   -258.65541155 </i>
   </energy>
  </scstep>
  <structure>
   <crystal>
    <varray name="basis" >
     <v>       9.71553889       0.00000000       0.00000000 </v>
     <v>       0.00000000       9.71553889       0.00000000 </v>
     <v>       0.00000000       0.00000000       9.71553889 </v>
    </varray>
    <i name="volume">    917.06619155 </i>
    <varray name="rec_basis" >
     <v>       0.10292790       0.00000000       0.00000000 </v>
     <v>       0.00000000       0.10292790       0.00000000 </v>
     <v>       0.00000000       0.00000000       0.10292790 </v>
    </varray>
   </crystal>
   <varray name="positions" >
    <v>       0.97114040       0.26787329       0.23199230 </v>
    <v>       0.98448352       0.76798881       0.73187679 </v>
    <v>       0.02493398       0.18918654       0.83689402 </v>
    <v>       0.02493398       0.66297157       0.31067905 </v>
    <v>       0.33709802       0.30018998       0.96847768 </v>
    <v>       0.21701371       0.77576291       0.02808057 </v>
    <v>       0.68553136       0.29924828       0.01418882 </v>
    <v>       0.82510036       0.81492351       0.97515443 </v>
    <v>       0.17984045       0.97166917       0.20252610 </v>
    <v>       0.22372622       0.01143588       0.80965211 </v>
    <v>       0.70122093       0.97495322       0.70798743 </v>
    <v>       0.78879708       0.02465845       0.22684945 </v>
    <v>       0.22372622       0.69021349       0.48842971 </v>
    <v>       0.17984045       0.29733949       0.52819642 </v>
    <v>       0.70122093       0.79187816       0.52491237 </v>
    <v>       0.78879708       0.27301615       0.47520714 </v>
    <v>       0.21701371       0.47178502       0.72410269 </v>
    <v>       0.33709802       0.53138791       0.19967561 </v>
    <v>       0.68553136       0.48567677       0.20061732 </v>
    <v>       0.82510036       0.52471117       0.68494208 </v>
    <v>       0.46615119       0.17821545       0.67378933 </v>
    <v>       0.46615119       0.82607626       0.32165015 </v>
    <v>       0.52315349       0.17588317       0.32398243 </v>
    <v>       0.54848328       0.65584023       0.84402536 </v>
    <v>       0.50373796       0.49373689       0.51133441 </v>
    <v>       0.50373796       0.98853119       0.00612870 </v>
    <v>       0.00286318       0.50076713       0.99909846 </v>
    <v>       0.00948961       0.99822195       0.50164364 </v>
    <v>       0.15165199       0.88822196       0.61164363 </v>
    <v>       0.11260468       0.12906627       0.37079932 </v>
    <v>       0.89151042       0.86748340       0.38466870 </v>
    <v>       0.89151042       0.11519689       0.63238220 </v>
    <v>       0.87945674       0.61950094       0.12234353 </v>
    <v>       0.87945674       0.37752206       0.88036465 </v>
    <v>       0.11856591       0.62565705       0.87420854 </v>
    <v>       0.13881667       0.38619184       0.11367376 </v>
    <v>       0.61329950       0.11743078       0.87865316 </v>
    <v>       0.63065598       0.87051289       0.12725489 </v>
    <v>       0.37784179       0.10691291       0.12807656 </v>
    <v>       0.39467863       0.85735889       0.88262912 </v>
    <v>       0.61329950       0.62121243       0.38243481 </v>
    <v>       0.63065598       0.37261071       0.62935270 </v>
    <v>       0.39467863       0.61723647       0.64250671 </v>
    <v>       0.37784179       0.37178904       0.39295268 </v>
    <v>       0.75467669       0.74649650       0.75336909 </v>
    <v>       0.73971080       0.25449125       0.24537434 </v>
    <v>       0.24758681       0.74635886       0.25897027 </v>
    <v>       0.24758681       0.24089532       0.75350673 </v>
    <v>       0.02999136       0.97936613       0.99164303 </v>
    <v>       0.02999136       0.50822257       0.52049946 </v>
    <v>       0.53959081       0.99599012       0.50387547 </v>
    <v>       0.50827061       0.47953110       0.02033450 </v>
   </varray>
  </structure>
  <varray name="forces" >
   <v>       0.00072990       0.00029673      -0.00029673 </v>
   <v>      -0.00045974       0.00035687      -0.00035687 </v>
   <v>      -0.00026763      -0.00022734       0.00012189 </v>
   <v>      -0.00026763      -0.00012189       0.00022734 </v>
   <v>       0.00056146      -0.00020545      -0.00007606 </v>
   <v>       0.00009333      -0.00042714       0.00012210 </v>
   <v>      -0.00000517       0.00001786       0.00010575 </v>
   <v>      -0.00024370      -0.00021255      -0.00014405 </v>
   <v>       0.00008490      -0.00004993       0.00011945 </v>
   <v>      -0.00025244      -0.00017194       0.00041518 </v>
   <v>      -0.00049264       0.00021646      -0.00033409 </v>
   <v>       0.00314028       0.00018734      -0.00287930 </v>
   <v>      -0.00025244      -0.00041518       0.00017194 </v>
   <v>       0.00008490      -0.00011945       0.00004993 </v>
   <v>      -0.00049264       0.00033409      -0.00021646 </v>
   <v>       0.00314028       0.00287930      -0.00018734 </v>
   <v>       0.00009333      -0.00012210       0.00042714 </v>
   <v>       0.00056146       0.00007606       0.00020545 </v>
   <v>      -0.00000517      -0.00010575      -0.00001786 </v>
   <v>      -0.00024370       0.00014405       0.00021255 </v>
   <v>      -0.00026600      -0.00032209      -0.00024782 </v>
   <v>      -0.00026600       0.00024782       0.00032209 </v>
   <v>       0.00077594      -0.00061857       0.00061857 </v>
   <v>      -0.00033103      -0.00002952       0.00002952 </v>
   <v>      -0.00166966       0.00061855      -0.00062164 </v>
   <v>      -0.00166966       0.00062164      -0.00061855 </v>
   <v>       0.00031586      -0.00099314       0.00099314 </v>
   <v>       0.00038774       0.00042154      -0.00042154 </v>
   <v>       0.00107519      -0.00048189       0.00048189 </v>
   <v>       0.00048727       0.00014061      -0.00014061 </v>
   <v>      -0.00076065      -0.00088074      -0.00088265 </v>
   <v>      -0.00076065       0.00088265       0.00088074 </v>
   <v>      -0.00082639       0.00089518       0.00044016 </v>
   <v>      -0.00082639      -0.00044016      -0.00089518 </v>
   <v>       0.00048243       0.00130636      -0.00130636 </v>
   <v>       0.00087796       0.00027091      -0.00027091 </v>
   <v>       0.00055807       0.00073197      -0.00037877 </v>
   <v>       0.00148748      -0.00109576       0.00144633 </v>
   <v>       0.00005665       0.00044741       0.00105422 </v>
   <v>      -0.00007676      -0.00052974       0.00003662 </v>
   <v>       0.00055807       0.00037877      -0.00073197 </v>
   <v>       0.00148748      -0.00144633       0.00109576 </v>
   <v>      -0.00007676      -0.00003662       0.00052974 </v>
   <v>       0.00005665      -0.00105422      -0.00044741 </v>
   <v>      -0.00067225      -0.00021864       0.00021864 </v>
   <v>       0.00022088      -0.00010299       0.00010299 </v>
   <v>      -0.00009138      -0.00001760       0.00021378 </v>
   <v>      -0.00009138      -0.00021378       0.00001760 </v>
   <v>      -0.00202428       0.00062154       0.00135719 </v>
   <v>      -0.00202428      -0.00135719      -0.00062154 </v>
   <v>      -0.00177250      -0.00073285       0.00073285 </v>
   <v>      -0.00012860       0.00065686      -0.00065686 </v>
  </varray>
  <varray name="stress" >
   <v>      -1.77656553       0.65650938      -0.65650938 </v>
   <v>       0.65650875       0.92702112       8.89711850 </v>
   <v>      -0.65650875       8.89711850       0.92702112 </v>
  </varray>
  <energy>
   <i name="e_fr_energy">   -271.99258821 </i>
   <i name="e_wo_entrp">   -271.99258821 </i>
   <i name="e_0_energy">   -271.99258821 </i>
  </energy>
  <time name="totalsc">   51.00   52.09</time>
 </calculation>
 <calculation>
  <scstep>
   <time name="dav">    1.75    1.77</time>
   <time name="total">    2.32    2.36</time>
   <energy>
    <i name="alphaZ">    296.00644553 </i>
    <i name="ewald">  -8730.34824131 </i>
    <i name="hartreedc">  -2263.42326898 </i>
    <i name="XCdc">    537.56926563 </i>
    <i name="pawpsdc">   9835.10556634 </i>
    <i name="pawaedc">  -9979.26853620 </i>
    <i name="eentropy">     -0.00000000 </i>
    <i name="bandstr">  -2657.43663888 </i>
    <i name="atom">  12703.13999606 </i>
    <i name="e_fr_energy">   -258.65541182 </i>
    <i name="e_wo_entrp">   -258.65541182 </i>
    <i name="e_0_energy">   -258.65541182 </i>
   </energy>
  </scstep>
  <scstep>
   <time name="diag">    0.28    0.28</time>
   <time name="diis">    0.65    0.66</time>
   <time name="orth">    0.05    0.05</time>
   <time name="total">    1.43    1.44</time>
   <energy>
    <i name="alphaZ">    296.00644553 </i>
    <i name="ewald">  -8730.34824131 </i>
    <i name="hartreedc">  -2263.42391139 </i>
    <i name="XCdc">    537.56905235 </i>
    <i name="pawpsdc">   9835.06075738 </i>
    <i name="pawaedc">  -9979.22326402 </i>
    <i name="eentropy">     -0.00000000 </i>
    <i name="bandstr">  -2657.43624667 </i>
    <i name="atom">  12703.13999606 </i>
    <i name="e_fr_energy">   -258.65541208 </i>
    <i name="e_wo_entrp">   -258.65541208 </i>
    <i name="e_0_energy">   -258.65541208 </i>
   </energy>
  </scstep>
  <structure>
   <crystal>
    <varray name="basis" >
     <v>       9.71553889       0.00000000       0.00000000 </v>
     <v>       0.00000000       9.71553889       0.00000000 </v>
     <v>       0.00000000       0.00000000       9.71553889 </v>
    </varray>
    <i name="volume">    917.06619155 </i>
    <varray name="rec_basis" >
     <v>       0.10292790       0.00000000       0.00000000 </v>
     <v>       0.00000000       0.10292790       0.00000000 </v>
     <v>       0.00000000       0.00000000       0.10292790 </v>
    </varray>
   </crystal>
   <varray name="positions" >
    <v>       0.97114185       0.26787388       0.23199171 </v>
    <v>       0.98448260       0.76798952       0.73187608 </v>
    <v>       0.02493345       0.18918609       0.83689427 </v>
    <v>       0.02493345       0.66297133       0.31067950 </v>
    <v>       0.33709913       0.30018957       0.96847753 </v>
    <v>       0.21701390       0.77576206       0.02808082 </v>
    <v>       0.68553135       0.29924831       0.01418903 </v>
    <v>       0.82509988       0.81492309       0.97515414 </v>
    <v>       0.17984062       0.97166907       0.20252634 </v>
    <v>       0.22372572       0.01143554       0.80965293 </v>
    <v>       0.70121995       0.97495365       0.70798677 </v>
    <v>       0.78880332       0.02465883       0.22684373 </v>
    <v>       0.22372572       0.69021266       0.48843005 </v>
    <v>       0.17984062       0.29733925       0.52819652 </v>
    <v>       0.70121995       0.79187883       0.52491194 </v>
    <v>       0.78880332       0.27302186       0.47520677 </v>
    <v>       0.21701390       0.47178478       0.72410354 </v>
    <v>       0.33709913       0.53138807       0.19967602 </v>
    <v>       0.68553135       0.48567656       0.20061728 </v>
    <v>       0.82509988       0.52471145       0.68494250 </v>
    <v>       0.46615067       0.17821481       0.67378884 </v>
    <v>       0.46615067       0.82607676       0.32165079 </v>
    <v>       0.52315503       0.17588194       0.32398365 </v>
    <v>       0.54848262       0.65584018       0.84402542 </v>
    <v>       0.50373464       0.49373812       0.51133317 </v>
    <v>       0.50373464       0.98853242       0.00612748 </v>
    <v>       0.00286381       0.50076516       0.99910044 </v>
    <v>       0.00949038       0.99822279       0.50164281 </v>
    <v>       0.15165412       0.88822100       0.61164459 </v>
    <v>       0.11260565       0.12906655       0.37079904 </v>
    <v>       0.89150891       0.86748165       0.38466695 </v>
    <v>       0.89150891       0.11519865       0.63238395 </v>
    <v>       0.87945510       0.61950272       0.12234441 </v>
    <v>       0.87945510       0.37752119       0.88036287 </v>
    <v>       0.11856687       0.62565965       0.87420594 </v>
    <v>       0.13881842       0.38619238       0.11367322 </v>
    <v>       0.61330061       0.11743224       0.87865241 </v>
    <v>       0.63065893       0.87051072       0.12725776 </v>
    <v>       0.37784190       0.10691380       0.12807865 </v>
    <v>       0.39467848       0.85735783       0.88262920 </v>
    <v>       0.61330061       0.62121318       0.38243336 </v>
    <v>       0.63065893       0.37260783       0.62935488 </v>
    <v>       0.39467848       0.61723640       0.64250776 </v>
    <v>       0.37784190       0.37178694       0.39295179 </v>
    <v>       0.75467535       0.74649607       0.75336953 </v>
    <v>       0.73971124       0.25449105       0.24537455 </v>
    <v>       0.24758663       0.74635883       0.25897070 </v>
    <v>       0.24758663       0.24089489       0.75350677 </v>
    <v>       0.02998734       0.97936737       0.99164572 </v>
    <v>       0.02998734       0.50821987       0.52049823 </v>
    <v>       0.53958729       0.99598867       0.50387692 </v>
    <v>       0.50827036       0.47953240       0.02033319 </v>
   </varray>
  </structure>
  <varray name="forces" >
   <v>       0.00031063       0.00019909      -0.00019909 </v>
   <v>      -0.00029328       0.00019899      -0.00019899 </v>
   <v>      -0.00024650      -0.00012645       0.00007057 </v>
   <v>      -0.00024650      -0.00007057       0.00012645 </v>
   <v>       0.00036045      -0.00008659      -0.00011294 </v>
   <v>      -0.00004086      -0.00026375       0.00007492 </v>
   <v>      -0.00004571       0.00005235       0.00005218 </v>
   <v>      -0.00021841      -0.00009020      -0.00005640 </v>
   <v>      -0.00003153      -0.00007115       0.00006124 </v>
   <v>      -0.00024200      -0.00010235       0.00024771 </v>
   <v>      -0.00034198       0.00014122      -0.00022037 </v>
   <v>       0.00180295       0.00009715      -0.00178816 </v>
   <v>      -0.00024200      -0.00024771       0.00010235 </v>
   <v>      -0.00003153      -0.00006124       0.00007115 </v>
   <v>      -0.00034198       0.00022037      -0.00014122 </v>
   <v>       0.00180295       0.00178816      -0.00009715 </v>
   <v>      -0.00004086      -0.00007492       0.00026375 </v>
   <v>       0.00036045       0.00011294       0.00008659 </v>
   <v>      -0.00004571      -0.00005218      -0.00005235 </v>
   <v>      -0.00021841       0.00005640       0.00009020 </v>
   <v>      -0.00014904      -0.00016782      -0.00017624 </v>
   <v>      -0.00014904       0.00017624       0.00016782 </v>
   <v>       0.00051693      -0.00042733       0.00042733 </v>
   <v>      -0.00016104      -0.00004459       0.00004459 </v>
   <v>      -0.00050772      -0.00001590      -0.00018790 </v>
   <v>      -0.00050772       0.00018790       0.00001590 </v>
   <v>       0.00002282      -0.00019475       0.00019475 </v>
   <v>      -0.00014884       0.00002659      -0.00002659 </v>
   <v>       0.00013610      -0.00026936       0.00026936 </v>
   <v>       0.00015879       0.00021544      -0.00021544 </v>
   <v>      -0.00034902      -0.00017355      -0.00022577 </v>
   <v>      -0.00034902       0.00022577       0.00017355 </v>
   <v>      -0.00026364       0.00029609       0.00010077 </v>
   <v>      -0.00026364      -0.00010077      -0.00029609 </v>
   <v>      -0.00019243       0.00041763      -0.00041763 </v>
   <v>       0.00056198      -0.00000129       0.00000129 </v>
   <v>       0.00008747       0.00029850      -0.00007390 </v>
   <v>       0.00033552       0.00002463       0.00043454 </v>
   <v>      -0.00007630       0.00030685       0.00056016 </v>
   <v>      -0.00039619      -0.00019661       0.00008033 </v>
   <v>       0.00008747       0.00007390      -0.00029850 </v>
   <v>       0.00033552      -0.00043454      -0.00002463 </v>
   <v>      -0.00039619      -0.00008033       0.00019661 </v>
   <v>      -0.00007630      -0.00056016      -0.00030685 </v>
   <v>      -0.00011906       0.00005842      -0.00005842 </v>
   <v>       0.00021442      -0.00007846       0.00007846 </v>
   <v>      -0.00018464      -0.00006368       0.00006135 </v>
   <v>      -0.00018464      -0.00006135       0.00006368 </v>
   <v>      -0.00020935      -0.00000185       0.00025922 </v>
   <v>      -0.00020935      -0.00025922       0.00000185 </v>
   <v>       0.00037198      -0.00026072       0.00026072 </v>
   <v>       0.00005403      -0.00053522       0.00053522 </v>
  </varray>
  <varray name="stress" >
   <v>      -1.79258137       0.65769288      -0.65769288 </v>
   <v>       0.65769222       0.91141426       8.89983003 </v>
   <v>      -0.65769222       8.89983003       0.91141426 </v>
  </varray>
  <energy>
   <i name="e_fr_energy">   -271.99259013 </i>
   <i name="e_wo_entrp">   -271.99259013 </i>
   <i name="e_0_energy">   -271.99259013 </i>
  </energy>
  <time name="totalsc">    6.44    6.57</time>
 </calculation>
 <calculation>
  <scstep>
   <time name="dav">    1.71    1.72</time>
   <time name="total">    2.27    2.32</time>
   <energy>
    <i name="alphaZ">    296.00644553 </i>
    <i name="ewald">  -8730.36935593 </i>
    <i name="hartreedc">  -2263.40733740 </i>
    <i name="XCdc">    537.56849553 </i>
    <i name="pawpsdc">   9835.03228783 </i>
    <i name="pawaedc">  -9979.19434393 </i>
    <i name="eentropy">     -0.00000000 </i>
    <i name="bandstr">  -2657.43159966 </i>
    <i name="atom">  12703.13999606 </i>
    <i name="e_fr_energy">   -258.65541195 </i>
    <i name="e_wo_entrp">   -258.65541195 </i>
    <i name="e_0_energy">   -258.65541195 </i>
   </energy>
  </scstep>
  <scstep>
   <time name="diag">    0.27    0.28</time>
   <time name="diis">    0.61    0.61</time>
   <time name="orth">    0.05    0.05</time>
   <time name="total">    1.38    1.39</time>
   <energy>
    <i name="alphaZ">    296.00644553 </i>
    <i name="ewald">  -8730.36935593 </i>
    <i name="hartreedc">  -2263.40572117 </i>
    <i name="XCdc">    537.56833832 </i>
    <i name="pawpsdc">   9835.00099681 </i>
    <i name="pawaedc">  -9979.16284099 </i>
    <i name="eentropy">     -0.00000000 </i>
    <i name="bandstr">  -2657.43327059 </i>
    <i name="atom">  12703.13999606 </i>
    <i name="e_fr_energy">   -258.65541196 </i>
    <i name="e_wo_entrp">   -258.65541196 </i>
    <i name="e_0_energy">   -258.65541196 </i>
   </energy>
  </scstep>
  <structure>
   <crystal>
    <varray name="basis" >
     <v>       9.71553889       0.00000000       0.00000000 </v>
     <v>       0.00000000       9.71553889       0.00000000 </v>
     <v>       0.00000000       0.00000000       9.71553889 </v>
    </varray>
    <i name="volume">    917.06619155 </i>
    <varray name="rec_basis" >
     <v>       0.10292790       0.00000000       0.00000000 </v>
     <v>       0.00000000       0.10292790       0.00000000 </v>
     <v>       0.00000000       0.00000000       0.10292790 </v>
    </varray>
   </crystal>
   <varray name="positions" >
    <v>       0.97114270       0.26787423       0.23199137 </v>
    <v>       0.98448207       0.76798993       0.73187566 </v>
    <v>       0.02493314       0.18918583       0.83689441 </v>
    <v>       0.02493314       0.66297119       0.31067977 </v>
    <v>       0.33709979       0.30018933       0.96847744 </v>
    <v>       0.21701401       0.77576156       0.02808096 </v>
    <v>       0.68553134       0.29924833       0.01418916 </v>
    <v>       0.82509959       0.81492284       0.97515397 </v>
    <v>       0.17984072       0.97166901       0.20252648 </v>
    <v>       0.22372543       0.01143534       0.80965341 </v>
    <v>       0.70121938       0.97495390       0.70798638 </v>
    <v>       0.78880698       0.02465904       0.22684037 </v>
    <v>       0.22372543       0.69021218       0.48843025 </v>
    <v>       0.17984072       0.29733911       0.52819658 </v>
    <v>       0.70121938       0.79187922       0.52491169 </v>
    <v>       0.78880698       0.27302522       0.47520655 </v>
    <v>       0.21701401       0.47178463       0.72410404 </v>
    <v>       0.33709979       0.53138815       0.19967626 </v>
    <v>       0.68553134       0.48567644       0.20061726 </v>
    <v>       0.82509959       0.52471162       0.68494275 </v>
    <v>       0.46615035       0.17821443       0.67378855 </v>
    <v>       0.46615035       0.82607704       0.32165116 </v>
    <v>       0.52315593       0.17588122       0.32398438 </v>
    <v>       0.54848224       0.65584014       0.84402545 </v>
    <v>       0.50373269       0.49373884       0.51133245 </v>
    <v>       0.50373269       0.98853315       0.00612675 </v>
    <v>       0.00286418       0.50076400       0.99910160 </v>
    <v>       0.00949083       0.99822328       0.50164231 </v>
    <v>       0.15165538       0.88822044       0.61164515 </v>
    <v>       0.11260622       0.12906672       0.37079888 </v>
    <v>       0.89150802       0.86748062       0.38466592 </v>
    <v>       0.89150802       0.11519968       0.63238498 </v>
    <v>       0.87945414       0.61950377       0.12234492 </v>
    <v>       0.87945414       0.37752067       0.88036183 </v>
    <v>       0.11856743       0.62566117       0.87420442 </v>
    <v>       0.13881944       0.38619269       0.11367290 </v>
    <v>       0.61330126       0.11743309       0.87865197 </v>
    <v>       0.63066067       0.87050944       0.12725945 </v>
    <v>       0.37784197       0.10691432       0.12807988 </v>
    <v>       0.39467839       0.85735722       0.88262924 </v>
    <v>       0.61330126       0.62121363       0.38243250 </v>
    <v>       0.63066067       0.37260615       0.62935616 </v>
    <v>       0.39467839       0.61723635       0.64250838 </v>
    <v>       0.37784197       0.37178571       0.39295127 </v>
    <v>       0.75467457       0.74649581       0.75336978 </v>
    <v>       0.73971150       0.25449093       0.24537467 </v>
    <v>       0.24758652       0.74635881       0.25897095 </v>
    <v>       0.24758652       0.24089465       0.75350679 </v>
    <v>       0.02998498       0.97936809       0.99164731 </v>
    <v>       0.02998498       0.50821829       0.52049750 </v>
    <v>       0.53958522       0.99598781       0.50387778 </v>
    <v>       0.50827021       0.47953317       0.02033243 </v>
   </varray>
  </structure>
  <varray name="forces" >
   <v>       0.00034185       0.00022534      -0.00022534 </v>
   <v>      -0.00039552       0.00026646      -0.00026646 </v>
   <v>      -0.00031202      -0.00015169       0.00008712 </v>
   <v>      -0.00031202      -0.00008712       0.00015169 </v>
   <v>       0.00044372      -0.00009177      -0.00014305 </v>
   <v>      -0.00003498      -0.00035367       0.00009980 </v>
   <v>      -0.00003803       0.00006078       0.00005847 </v>
   <v>      -0.00024567      -0.00007719      -0.00004177 </v>
   <v>      -0.00005899      -0.00007680       0.00007433 </v>
   <v>      -0.00027033      -0.00011823       0.00026016 </v>
   <v>      -0.00043200       0.00016374      -0.00025598 </v>
   <v>       0.00256329       0.00012633      -0.00250845 </v>
   <v>      -0.00027033      -0.00026016       0.00011823 </v>
   <v>      -0.00005899      -0.00007433       0.00007680 </v>
   <v>      -0.00043200       0.00025598      -0.00016374 </v>
   <v>       0.00256329       0.00250845      -0.00012633 </v>
   <v>      -0.00003498      -0.00009980       0.00035367 </v>
   <v>       0.00044372       0.00014305       0.00009177 </v>
   <v>      -0.00003803      -0.00005847      -0.00006078 </v>
   <v>      -0.00024567       0.00004177       0.00007719 </v>
   <v>      -0.00014980      -0.00020904      -0.00021929 </v>
   <v>      -0.00014980       0.00021929       0.00020904 </v>
   <v>       0.00070356      -0.00058129       0.00058129 </v>
   <v>      -0.00015953      -0.00007436       0.00007436 </v>
   <v>       0.00023503      -0.00035953       0.00009460 </v>
   <v>       0.00023503      -0.00009460       0.00035953 </v>
   <v>      -0.00015560       0.00023203      -0.00023203 </v>
   <v>      -0.00034433      -0.00017007       0.00017007 </v>
   <v>       0.00015579      -0.00013890       0.00013890 </v>
   <v>       0.00023430       0.00019344      -0.00019344 </v>
   <v>      -0.00022028      -0.00003739      -0.00016630 </v>
   <v>      -0.00022028       0.00016630       0.00003739 </v>
   <v>      -0.00017423       0.00018879       0.00002716 </v>
   <v>      -0.00017423      -0.00002716      -0.00018879 </v>
   <v>      -0.00037520       0.00029166      -0.00029166 </v>
   <v>       0.00068333      -0.00000100       0.00000100 </v>
   <v>      -0.00001644       0.00025009       0.00002395 </v>
   <v>       0.00009519       0.00024280       0.00024153 </v>
   <v>      -0.00007356       0.00034215       0.00067088 </v>
   <v>      -0.00040860      -0.00023374       0.00008007 </v>
   <v>      -0.00001644      -0.00002395      -0.00025009 </v>
   <v>       0.00009519      -0.00024153      -0.00024280 </v>
   <v>      -0.00040860      -0.00008007       0.00023374 </v>
   <v>      -0.00007356      -0.00067088      -0.00034215 </v>
   <v>      -0.00039747      -0.00001349       0.00001349 </v>
   <v>       0.00035278      -0.00008234       0.00008234 </v>
   <v>      -0.00020080      -0.00006504       0.00014526 </v>
   <v>      -0.00020080      -0.00014526       0.00006504 </v>
   <v>      -0.00089728       0.00025466       0.00071621 </v>
   <v>      -0.00089728      -0.00071621      -0.00025466 </v>
   <v>      -0.00023171      -0.00048453       0.00048453 </v>
   <v>      -0.00002071      -0.00027351       0.00027351 </v>
  </varray>
  <varray name="stress" >
   <v>      -1.80081300       0.65820738      -0.65820738 </v>
   <v>       0.65820664       0.90342259       8.90067607 </v>
   <v>      -0.65820664       8.90067607       0.90342259 </v>
  </varray>
  <energy>
   <i name="e_fr_energy">   -271.99259083 </i>
   <i name="e_wo_entrp">   -271.99259083 </i>
   <i name="e_0_energy">   -271.99259083 </i>
  </energy>
  <time name="totalsc">    6.33    6.45</time>
 </calculation>
 <calculation>
  <scstep>
   <time name="dav">    1.81    1.83</time>
   <time name="total">    2.37    2.41</time>
   <energy>
    <i name="alphaZ">    296.00644553 </i>
    <i name="ewald">  -8730.41158098 </i>
    <i name="hartreedc">  -2263.37104723 </i>
    <i name="XCdc">    537.56746103 </i>
    <i name="pawpsdc">   9834.98439483 </i>
    <i name="pawaedc">  -9979.14611201 </i>
    <i name="eentropy">     -0.00000000 </i>
    <i name="bandstr">  -2657.42496812 </i>
    <i name="atom">  12703.13999606 </i>
    <i name="e_fr_energy">   -258.65541089 </i>
    <i name="e_wo_entrp">   -258.65541089 </i>
    <i name="e_0_energy">   -258.65541089 </i>
   </energy>
  </scstep>
  <scstep>
   <time name="diag">    0.28    0.28</time>
   <time name="diis">    0.73    0.74</time>
   <time name="orth">    0.05    0.05</time>
   <time name="total">    1.51    1.52</time>
   <energy>
    <i name="alphaZ">    296.00644553 </i>
    <i name="ewald">  -8730.41158098 </i>
    <i name="hartreedc">  -2263.36861770 </i>
    <i name="XCdc">    537.56732998 </i>
    <i name="pawpsdc">   9834.94759010 </i>
    <i name="pawaedc">  -9979.10920078 </i>
    <i name="eentropy">     -0.00000000 </i>
    <i name="bandstr">  -2657.42737334 </i>
    <i name="atom">  12703.13999606 </i>
    <i name="e_fr_energy">   -258.65541113 </i>
    <i name="e_wo_entrp">   -258.65541113 </i>
    <i name="e_0_energy">   -258.65541113 </i>
   </energy>
  </scstep>
  <structure>
   <crystal>
    <varray name="basis" >
     <v>       9.71553889       0.00000000       0.00000000 </v>
     <v>       0.00000000       9.71553889       0.00000000 </v>
     <v>       0.00000000       0.00000000       9.71553889 </v>
    </varray>
    <i name="volume">    917.06619155 </i>
    <varray name="rec_basis" >
     <v>       0.10292790       0.00000000       0.00000000 </v>
     <v>       0.00000000       0.10292790       0.00000000 </v>
     <v>       0.00000000       0.00000000       0.10292790 </v>
    </varray>
   </crystal>
   <varray name="positions" >
    <v>       0.97114441       0.26787492       0.23199067 </v>
    <v>       0.98448099       0.76799077       0.73187483 </v>
    <v>       0.02493252       0.18918530       0.83689469 </v>
    <v>       0.02493252       0.66297090       0.31068030 </v>
    <v>       0.33710110       0.30018885       0.96847726 </v>
    <v>       0.21701422       0.77576056       0.02808124 </v>
    <v>       0.68553133       0.29924837       0.01418940 </v>
    <v>       0.82509903       0.81492235       0.97515364 </v>
    <v>       0.17984092       0.97166890       0.20252676 </v>
    <v>       0.22372484       0.01143494       0.80965438 </v>
    <v>       0.70121823       0.97495441       0.70798560 </v>
    <v>       0.78881431       0.02465948       0.22683365 </v>
    <v>       0.22372484       0.69021121       0.48843065 </v>
    <v>       0.17984092       0.29733884       0.52819670 </v>
    <v>       0.70121823       0.79188000       0.52491119 </v>
    <v>       0.78881431       0.27303194       0.47520611 </v>
    <v>       0.21701422       0.47178435       0.72410503 </v>
    <v>       0.33710110       0.53138833       0.19967674 </v>
    <v>       0.68553133       0.48567619       0.20061722 </v>
    <v>       0.82509903       0.52471196       0.68494325 </v>
    <v>       0.46614973       0.17821368       0.67378797 </v>
    <v>       0.46614973       0.82607762       0.32165191 </v>
    <v>       0.52315775       0.17587977       0.32398582 </v>
    <v>       0.54848146       0.65584007       0.84402552 </v>
    <v>       0.50372879       0.49374028       0.51133099 </v>
    <v>       0.50372879       0.98853460       0.00612531 </v>
    <v>       0.00286491       0.50076168       0.99910391 </v>
    <v>       0.00949174       0.99822426       0.50164133 </v>
    <v>       0.15165789       0.88821932       0.61164628 </v>
    <v>       0.11260735       0.12906705       0.37079855 </v>
    <v>       0.89150625       0.86747856       0.38466386 </v>
    <v>       0.89150625       0.11520174       0.63238703 </v>
    <v>       0.87945221       0.61950585       0.12234595 </v>
    <v>       0.87945221       0.37751965       0.88035974 </v>
    <v>       0.11856856       0.62566422       0.87420137 </v>
    <v>       0.13882149       0.38619332       0.11367227 </v>
    <v>       0.61330256       0.11743480       0.87865108 </v>
    <v>       0.63066414       0.87050688       0.12726282 </v>
    <v>       0.37784210       0.10691537       0.12808234 </v>
    <v>       0.39467821       0.85735598       0.88262932 </v>
    <v>       0.61330256       0.62121451       0.38243079 </v>
    <v>       0.63066414       0.37260277       0.62935871 </v>
    <v>       0.39467821       0.61723627       0.64250961 </v>
    <v>       0.37784210       0.37178325       0.39295023 </v>
    <v>       0.75467300       0.74649530       0.75337029 </v>
    <v>       0.73971202       0.25449069       0.24537491 </v>
    <v>       0.24758631       0.74635876       0.25897145 </v>
    <v>       0.24758631       0.24089415       0.75350683 </v>
    <v>       0.02998025       0.97936954       0.99165048 </v>
    <v>       0.02998025       0.50821512       0.52049605 </v>
    <v>       0.53958108       0.99598610       0.50387949 </v>
    <v>       0.50826991       0.47953470       0.02033089 </v>
   </varray>
  </structure>
  <varray name="forces" >
   <v>       0.00012802       0.00016653      -0.00016653 </v>
   <v>      -0.00035779       0.00021287      -0.00021287 </v>
   <v>      -0.00029356      -0.00010461       0.00005183 </v>
   <v>      -0.00029356      -0.00005183       0.00010461 </v>
   <v>       0.00036448      -0.00003614      -0.00017723 </v>
   <v>      -0.00008335      -0.00030788       0.00009429 </v>
   <v>      -0.00002481       0.00007689       0.00003447 </v>
   <v>      -0.00025602      -0.00003381       0.00000316 </v>
   <v>      -0.00010490      -0.00010276       0.00003501 </v>
   <v>      -0.00025551      -0.00008974       0.00017124 </v>
   <v>      -0.00034082       0.00010516      -0.00019494 </v>
   <v>       0.00166722       0.00003229      -0.00176850 </v>
   <v>      -0.00025551      -0.00017124       0.00008974 </v>
   <v>      -0.00010490      -0.00003501       0.00010276 </v>
   <v>      -0.00034082       0.00019494      -0.00010516 </v>
   <v>       0.00166722       0.00176850      -0.00003229 </v>
   <v>      -0.00008335      -0.00009429       0.00030788 </v>
   <v>       0.00036448       0.00017723       0.00003614 </v>
   <v>      -0.00002481      -0.00003447      -0.00007689 </v>
   <v>      -0.00025602      -0.00000316       0.00003381 </v>
   <v>      -0.00002429      -0.00011204      -0.00016817 </v>
   <v>      -0.00002429       0.00016817       0.00011204 </v>
   <v>       0.00059309      -0.00047174       0.00047174 </v>
   <v>      -0.00001924      -0.00010495       0.00010495 </v>
   <v>       0.00176935      -0.00110515       0.00067159 </v>
   <v>       0.00176935      -0.00067159       0.00110515 </v>
   <v>      -0.00049489       0.00115784      -0.00115784 </v>
   <v>      -0.00080189      -0.00062755       0.00062755 </v>
   <v>      -0.00046697       0.00024374      -0.00024374 </v>
   <v>       0.00012272       0.00016930      -0.00016930 </v>
   <v>       0.00033258       0.00059358       0.00038695 </v>
   <v>       0.00033258      -0.00038695      -0.00059358 </v>
   <v>       0.00036714      -0.00039370      -0.00035860 </v>
   <v>       0.00036714       0.00035860       0.00039370 </v>
   <v>      -0.00099716      -0.00058226       0.00058226 </v>
   <v>       0.00057390      -0.00020174       0.00020174 </v>
   <v>      -0.00047445      -0.00019811       0.00036502 </v>
   <v>      -0.00109349       0.00126226      -0.00085129 </v>
   <v>      -0.00013986       0.00020889       0.00035009 </v>
   <v>      -0.00049203      -0.00007247       0.00005927 </v>
   <v>      -0.00047445      -0.00036502       0.00019811 </v>
   <v>      -0.00109349       0.00085129      -0.00126226 </v>
   <v>      -0.00049203      -0.00005927       0.00007247 </v>
   <v>      -0.00013986      -0.00035009      -0.00020889 </v>
   <v>      -0.00020568       0.00007880      -0.00007880 </v>
   <v>       0.00038685      -0.00003428       0.00003428 </v>
   <v>      -0.00018639      -0.00008524       0.00009951 </v>
   <v>      -0.00018639      -0.00009951       0.00008524 </v>
   <v>      -0.00018827       0.00014107       0.00032450 </v>
   <v>      -0.00018827      -0.00032450      -0.00014107 </v>
   <v>       0.00044221      -0.00017390       0.00017390 </v>
   <v>       0.00001082      -0.00048295       0.00048295 </v>
  </varray>
  <varray name="stress" >
   <v>      -1.81209158       0.65950422      -0.65950422 </v>
   <v>       0.65950366       0.89302087       8.90368680 </v>
   <v>      -0.65950366       8.90368680       0.89302087 </v>
  </varray>
  <energy>
   <i name="e_fr_energy">   -271.99259165 </i>
   <i name="e_wo_entrp">   -271.99259165 </i>
   <i name="e_0_energy">   -271.99259165 </i>
  </energy>
  <time name="totalsc">    6.56    6.64</time>
 </calculation>
 <calculation>
  <scstep>
   <time name="dav">    1.78    1.79</time>
   <time name="total">    2.33    2.36</time>
   <energy>
    <i name="alphaZ">    296.00644553 </i>
    <i name="ewald">  -8730.42037613 </i>
    <i name="hartreedc">  -2263.35986565 </i>
    <i name="XCdc">    537.56719455 </i>
    <i name="pawpsdc">   9834.92695899 </i>
    <i name="pawaedc">  -9979.08845710 </i>
    <i name="eentropy">     -0.00000000 </i>
    <i name="bandstr">  -2657.42730883 </i>
    <i name="atom">  12703.13999606 </i>
    <i name="e_fr_energy">   -258.65541257 </i>
    <i name="e_wo_entrp">   -258.65541257 </i>
    <i name="e_0_energy">   -258.65541257 </i>
   </energy>
  </scstep>
  <scstep>
   <time name="diag">    0.27    0.28</time>
   <time name="diis">    0.62    0.63</time>
   <time name="orth">    0.05    0.05</time>
   <time name="total">    1.40    1.41</time>
   <energy>
    <i name="alphaZ">    296.00644553 </i>
    <i name="ewald">  -8730.42037613 </i>
    <i name="hartreedc">  -2263.35919590 </i>
    <i name="XCdc">    537.56716708 </i>
    <i name="pawpsdc">   9834.91585324 </i>
    <i name="pawaedc">  -9979.07728411 </i>
    <i name="eentropy">     -0.00000000 </i>
    <i name="bandstr">  -2657.42801869 </i>
    <i name="atom">  12703.13999606 </i>
    <i name="e_fr_energy">   -258.65541292 </i>
    <i name="e_wo_entrp">   -258.65541292 </i>
    <i name="e_0_energy">   -258.65541292 </i>
   </energy>
  </scstep>
  <structure>
   <crystal>
    <varray name="basis" >
     <v>       9.71553889       0.00000000       0.00000000 </v>
     <v>       0.00000000       9.71553889       0.00000000 </v>
     <v>       0.00000000       0.00000000       9.71553889 </v>
    </varray>
    <i name="volume">    917.06619155 </i>
    <varray name="rec_basis" >
     <v>       0.10292790       0.00000000       0.00000000 </v>
     <v>       0.00000000       0.10292790       0.00000000 </v>
     <v>       0.00000000       0.00000000       0.10292790 </v>
    </varray>
   </crystal>
   <varray name="positions" >
    <v>       0.97114560       0.26787571       0.23198988 </v>
    <v>       0.98447950       0.76799175       0.73187384 </v>
    <v>       0.02493141       0.18918475       0.83689497 </v>
    <v>       0.02493141       0.66297062       0.31068084 </v>
    <v>       0.33710273       0.30018852       0.96847670 </v>
    <v>       0.21701411       0.77575924       0.02808164 </v>
    <v>       0.68553125       0.29924860       0.01418962 </v>
    <v>       0.82509805       0.81492201       0.97515348 </v>
    <v>       0.17984074       0.97166856       0.20252699 </v>
    <v>       0.22372386       0.01143450       0.80965533 </v>
    <v>       0.70121674       0.97495494       0.70798468 </v>
    <v>       0.78882245       0.02465979       0.22682554 </v>
    <v>       0.22372386       0.69021027       0.48843110 </v>
    <v>       0.17984074       0.29733860       0.52819703 </v>
    <v>       0.70121674       0.79188091       0.52491065 </v>
    <v>       0.78882245       0.27304005       0.47520581 </v>
    <v>       0.21701411       0.47178395       0.72410636 </v>
    <v>       0.33710273       0.53138890       0.19967708 </v>
    <v>       0.68553125       0.48567597       0.20061699 </v>
    <v>       0.82509805       0.52471212       0.68494359 </v>
    <v>       0.46614936       0.17821300       0.67378723 </v>
    <v>       0.46614936       0.82607836       0.32165259 </v>
    <v>       0.52316024       0.17587779       0.32398781 </v>
    <v>       0.54848103       0.65583976       0.84402584 </v>
    <v>       0.50373160       0.49373804       0.51133207 </v>
    <v>       0.50373160       0.98853352       0.00612756 </v>
    <v>       0.00286395       0.50076363       0.99910196 </v>
    <v>       0.00949003       0.99822307       0.50164252 </v>
    <v>       0.15165789       0.88821941       0.61164618 </v>
    <v>       0.11260825       0.12906766       0.37079793 </v>
    <v>       0.89150625       0.86747913       0.38466387 </v>
    <v>       0.89150625       0.11520173       0.63238646 </v>
    <v>       0.87945223       0.61950584       0.12234550 </v>
    <v>       0.87945223       0.37752010       0.88035975 </v>
    <v>       0.11856644       0.62566418       0.87420141 </v>
    <v>       0.13882406       0.38619310       0.11367250 </v>
    <v>       0.61330194       0.11743512       0.87865162 </v>
    <v>       0.63066294       0.87050899       0.12726222 </v>
    <v>       0.37784179       0.10691645       0.12808451 </v>
    <v>       0.39467680       0.85735517       0.88262953 </v>
    <v>       0.61330194       0.62121397       0.38243047 </v>
    <v>       0.63066294       0.37260337       0.62935660 </v>
    <v>       0.39467680       0.61723607       0.64251043 </v>
    <v>       0.37784179       0.37178108       0.39294915 </v>
    <v>       0.75467166       0.74649526       0.75337034 </v>
    <v>       0.73971331       0.25449047       0.24537512 </v>
    <v>       0.24758570       0.74635852       0.25897196 </v>
    <v>       0.24758570       0.24089363       0.75350708 </v>
    <v>       0.02997738       0.97937065       0.99165293 </v>
    <v>       0.02997738       0.50821266       0.52049495 </v>
    <v>       0.53958021       0.99598478       0.50388081 </v>
    <v>       0.50826979       0.47953417       0.02033142 </v>
   </varray>
  </structure>
  <varray name="forces" >
   <v>       0.00029119       0.00019108      -0.00019108 </v>
   <v>      -0.00032494       0.00018908      -0.00018908 </v>
   <v>      -0.00015906      -0.00006409       0.00006829 </v>
   <v>      -0.00015906      -0.00006829       0.00006409 </v>
   <v>       0.00021307      -0.00007407      -0.00004219 </v>
   <v>      -0.00000049      -0.00019801       0.00010438 </v>
   <v>      -0.00002627       0.00004308       0.00008762 </v>
   <v>      -0.00011847      -0.00005513      -0.00010988 </v>
   <v>      -0.00002095       0.00002366       0.00004009 </v>
   <v>      -0.00012339      -0.00006052       0.00016316 </v>
   <v>      -0.00028466       0.00006011      -0.00013433 </v>
   <v>       0.00163411       0.00018815      -0.00159898 </v>
   <v>      -0.00012339      -0.00016316       0.00006052 </v>
   <v>      -0.00002095      -0.00004009      -0.00002366 </v>
   <v>      -0.00028466       0.00013433      -0.00006011 </v>
   <v>       0.00163411       0.00159898      -0.00018815 </v>
   <v>      -0.00000049      -0.00010438       0.00019801 </v>
   <v>       0.00021307       0.00004219       0.00007407 </v>
   <v>      -0.00002627      -0.00008762      -0.00004308 </v>
   <v>      -0.00011847       0.00010988       0.00005513 </v>
   <v>      -0.00016018      -0.00014799      -0.00012597 </v>
[...]
       <r>     7.7410    14.2292   143.7831 </r>
       <r>     7.9330     9.1736   145.5495 </r>
       <r>     8.1250    12.5478   147.9587 </r>
       <r>     8.3170    14.5505   150.7522 </r>
       <r>     8.5090    15.7988   153.7854 </r>
       <r>     8.7009    15.7434   156.8080 </r>
       <r>     8.8929    17.7544   160.2168 </r>
       <r>     9.0849    18.3160   163.7364 </r>
       <r>     9.2769    20.0517   167.5908 </r>
       <r>     9.4689    17.5777   170.9668 </r>
       <r>     9.6609    15.2614   173.9008 </r>
       <r>     9.8529    10.9306   176.0000 </r>
       <r>    10.0449     0.0000   176.0000 </r>
       <r>    10.2368     0.0000   176.0000 </r>
       <r>    10.4288     0.0000   176.0000 </r>
       <r>    10.6208     0.0000   176.0000 </r>
       <r>    10.8128     0.0000   176.0000 </r>
       <r>    11.0048     0.0000   176.0000 </r>
       <r>    11.1968     0.0000   176.0000 </r>
       <r>    11.3888     0.0000   176.0000 </r>
       <r>    11.5807     0.0000   176.0000 </r>
       <r>    11.7727     0.0000   176.0000 </r>
       <r>    11.9647     0.0000   176.0000 </r>
       <r>    12.1567     0.0000   176.0000 </r>
       <r>    12.3487     0.0000   176.0000 </r>
      </set>
      <set comment="spin 2">
       <r>   -45.2471     0.0000     0.0000 </r>
       <r>   -45.0551     0.0000     0.0000 </r>
       <r>   -44.8631     0.0000     0.0000 </r>
       <r>   -44.6712     0.0000     0.0000 </r>
       <r>   -44.4792     0.0000     0.0000 </r>
       <r>   -44.2872     0.0000     0.0000 </r>
       <r>   -44.0952     0.0000     0.0000 </r>
       <r>   -43.9032     0.0000     0.0000 </r>
       <r>   -43.7112     0.0000     0.0000 </r>
       <r>   -43.5192     0.0000     0.0000 </r>
       <r>   -43.3273     0.0000     0.0000 </r>
       <r>   -43.1353     0.0000     0.0000 </r>
       <r>   -42.9433     0.0000     0.0000 </r>
       <r>   -42.7513     0.0000     0.0000 </r>
       <r>   -42.5593    34.7578     6.6730 </r>
       <r>   -42.3673    82.1483    22.4453 </r>
       <r>   -42.1753     8.0398    24.0000 </r>
       <r>   -41.9834     0.0000    24.0000 </r>
       <r>   -41.7914     0.0000    24.0000 </r>
       <r>   -41.5994     0.0000    24.0000 </r>
       <r>   -41.4074     0.0000    24.0000 </r>
       <r>   -41.2154     0.0000    24.0000 </r>
       <r>   -41.0234     0.0000    24.0000 </r>
       <r>   -40.8314     0.0000    24.0000 </r>
       <r>   -40.6395     0.0000    24.0000 </r>
       <r>   -40.4475     0.0000    24.0000 </r>
       <r>   -40.2555     0.0000    24.0000 </r>
       <r>   -40.0635     0.0000    24.0000 </r>
       <r>   -39.8715     0.0000    24.0000 </r>
       <r>   -39.6795     0.0000    24.0000 </r>
       <r>   -39.4875     0.0000    24.0000 </r>
       <r>   -39.2955     0.0000    24.0000 </r>
       <r>   -39.1036     0.0000    24.0000 </r>
       <r>   -38.9116     0.0000    24.0000 </r>
       <r>   -38.7196     0.0000    24.0000 </r>
       <r>   -38.5276     0.0000    24.0000 </r>
       <r>   -38.3356     0.0000    24.0000 </r>
       <r>   -38.1436     0.0000    24.0000 </r>
       <r>   -37.9516     0.0000    24.0000 </r>
       <r>   -37.7597     0.0000    24.0000 </r>
       <r>   -37.5677     0.0000    24.0000 </r>
       <r>   -37.3757     0.0000    24.0000 </r>
       <r>   -37.1837     0.0000    24.0000 </r>
       <r>   -36.9917     0.0000    24.0000 </r>
       <r>   -36.7997     0.0000    24.0000 </r>
       <r>   -36.6077     0.0000    24.0000 </r>
       <r>   -36.4158     0.0000    24.0000 </r>
       <r>   -36.2238     0.0000    24.0000 </r>
       <r>   -36.0318     0.0000    24.0000 </r>
       <r>   -35.8398     0.0000    24.0000 </r>
       <r>   -35.6478     0.0000    24.0000 </r>
       <r>   -35.4558     0.0000    24.0000 </r>
       <r>   -35.2638     0.0000    24.0000 </r>
       <r>   -35.0719     0.0000    24.0000 </r>
       <r>   -34.8799     0.0000    24.0000 </r>
       <r>   -34.6879     0.0000    24.0000 </r>
       <r>   -34.4959     0.0000    24.0000 </r>
       <r>   -34.3039     0.0000    24.0000 </r>
       <r>   -34.1119     0.0000    24.0000 </r>
       <r>   -33.9199     0.0000    24.0000 </r>
       <r>   -33.7280     0.0000    24.0000 </r>
       <r>   -33.5360     0.0000    24.0000 </r>
       <r>   -33.3440     0.0000    24.0000 </r>
       <r>   -33.1520     0.0000    24.0000 </r>
       <r>   -32.9600     0.0000    24.0000 </r>
       <r>   -32.7680     0.0000    24.0000 </r>
       <r>   -32.5760     0.0000    24.0000 </r>
       <r>   -32.3841     0.0000    24.0000 </r>
       <r>   -32.1921     0.0000    24.0000 </r>
       <r>   -32.0001     0.0000    24.0000 </r>
       <r>   -31.8081     0.0000    24.0000 </r>
       <r>   -31.6161     0.0000    24.0000 </r>
       <r>   -31.4241     0.0000    24.0000 </r>
       <r>   -31.2321     0.0000    24.0000 </r>
       <r>   -31.0402     0.0000    24.0000 </r>
       <r>   -30.8482     0.0000    24.0000 </r>
       <r>   -30.6562     0.0000    24.0000 </r>
       <r>   -30.4642     0.0000    24.0000 </r>
       <r>   -30.2722     0.0000    24.0000 </r>
       <r>   -30.0802     0.0000    24.0000 </r>
       <r>   -29.8882     0.0000    24.0000 </r>
       <r>   -29.6962     0.0000    24.0000 </r>
       <r>   -29.5043     0.0000    24.0000 </r>
       <r>   -29.3123     0.0000    24.0000 </r>
       <r>   -29.1203     0.0000    24.0000 </r>
       <r>   -28.9283     0.0000    24.0000 </r>
       <r>   -28.7363     0.0000    24.0000 </r>
       <r>   -28.5443     0.0000    24.0000 </r>
       <r>   -28.3523     0.0000    24.0000 </r>
       <r>   -28.1604     0.0000    24.0000 </r>
       <r>   -27.9684     0.0000    24.0000 </r>
       <r>   -27.7764     0.0000    24.0000 </r>
       <r>   -27.5844     0.0000    24.0000 </r>
       <r>   -27.3924     0.0000    24.0000 </r>
       <r>   -27.2004     0.0000    24.0000 </r>
       <r>   -27.0084     0.0000    24.0000 </r>
       <r>   -26.8165     0.0000    24.0000 </r>
       <r>   -26.6245     0.0000    24.0000 </r>
       <r>   -26.4325     0.0000    24.0000 </r>
       <r>   -26.2405     0.0000    24.0000 </r>
       <r>   -26.0485     0.0000    24.0000 </r>
       <r>   -25.8565     0.0000    24.0000 </r>
       <r>   -25.6645     0.0000    24.0000 </r>
       <r>   -25.4726     0.0000    24.0000 </r>
       <r>   -25.2806     0.0000    24.0000 </r>
       <r>   -25.0886     0.0000    24.0000 </r>
       <r>   -24.8966     0.0000    24.0000 </r>
       <r>   -24.7046     0.0000    24.0000 </r>
       <r>   -24.5126     0.0000    24.0000 </r>
       <r>   -24.3206     0.0000    24.0000 </r>
       <r>   -24.1287     0.0000    24.0000 </r>
       <r>   -23.9367     0.0000    24.0000 </r>
       <r>   -23.7447     0.0000    24.0000 </r>
       <r>   -23.5527     0.0000    24.0000 </r>
       <r>   -23.3607     0.0000    24.0000 </r>
       <r>   -23.1687     0.0000    24.0000 </r>
       <r>   -22.9767     0.0000    24.0000 </r>
       <r>   -22.7848     0.0000    24.0000 </r>
       <r>   -22.5928     0.0000    24.0000 </r>
       <r>   -22.4008     0.0000    24.0000 </r>
       <r>   -22.2088     0.0000    24.0000 </r>
       <r>   -22.0168     0.0000    24.0000 </r>
       <r>   -21.8248     0.0000    24.0000 </r>
       <r>   -21.6328     0.0000    24.0000 </r>
       <r>   -21.4409     0.0000    24.0000 </r>
       <r>   -21.2489     0.0000    24.0000 </r>
       <r>   -21.0569     0.0000    24.0000 </r>
       <r>   -20.8649     0.0000    24.0000 </r>
       <r>   -20.6729     0.0000    24.0000 </r>
       <r>   -20.4809     0.0000    24.0000 </r>
       <r>   -20.2889     0.0000    24.0000 </r>
       <r>   -20.0969     0.0000    24.0000 </r>
       <r>   -19.9050     0.0000    24.0000 </r>
       <r>   -19.7130     0.0000    24.0000 </r>
       <r>   -19.5210     0.0000    24.0000 </r>
       <r>   -19.3290     0.0000    24.0000 </r>
       <r>   -19.1370     0.0000    24.0000 </r>
       <r>   -18.9450     0.0000    24.0000 </r>
       <r>   -18.7530     0.0000    24.0000 </r>
       <r>   -18.5611     0.0000    24.0000 </r>
       <r>   -18.3691     0.0000    24.0000 </r>
       <r>   -18.1771     0.0000    24.0000 </r>
       <r>   -17.9851     0.0000    24.0000 </r>
       <r>   -17.7931     0.0000    24.0000 </r>
       <r>   -17.6011     0.0000    24.0000 </r>
       <r>   -17.4091     0.0000    24.0000 </r>
       <r>   -17.2172     0.0000    24.0000 </r>
       <r>   -17.0252     0.0000    24.0000 </r>
       <r>   -16.8332     0.0000    24.0000 </r>
       <r>   -16.6412     0.0000    24.0000 </r>
       <r>   -16.4492     0.0000    24.0000 </r>
       <r>   -16.2572     0.0000    24.0000 </r>
       <r>   -16.0652     0.0000    24.0000 </r>
       <r>   -15.8733     0.0000    24.0000 </r>
       <r>   -15.6813     0.0000    24.0000 </r>
       <r>   -15.4893     0.0000    24.0000 </r>
       <r>   -15.2973     0.0000    24.0000 </r>
       <r>   -15.1053     0.0000    24.0000 </r>
       <r>   -14.9133     0.0000    24.0000 </r>
       <r>   -14.7213     0.0000    24.0000 </r>
       <r>   -14.5294     0.0000    24.0000 </r>
       <r>   -14.3374     0.0000    24.0000 </r>
       <r>   -14.1454     0.0000    24.0000 </r>
       <r>   -13.9534     0.0000    24.0000 </r>
       <r>   -13.7614     0.0000    24.0000 </r>
       <r>   -13.5694     0.0000    24.0000 </r>
       <r>   -13.3774     0.0000    24.0000 </r>
       <r>   -13.1855     4.3111    24.8277 </r>
       <r>   -12.9935    16.5238    28.0000 </r>
       <r>   -12.8015     0.0000    28.0000 </r>
       <r>   -12.6095     1.2130    28.2329 </r>
       <r>   -12.4175    17.5229    31.5970 </r>
       <r>   -12.2255     2.0990    32.0000 </r>
       <r>   -12.0335     0.0000    32.0000 </r>
       <r>   -11.8416     0.0000    32.0000 </r>
       <r>   -11.6496     0.0000    32.0000 </r>
       <r>   -11.4576     0.0000    32.0000 </r>
       <r>   -11.2656     0.0000    32.0000 </r>
       <r>   -11.0736     0.0000    32.0000 </r>
       <r>   -10.8816     0.0000    32.0000 </r>
       <r>   -10.6896     0.0000    32.0000 </r>
       <r>   -10.4977     0.0000    32.0000 </r>
       <r>   -10.3057    15.6560    35.0057 </r>
       <r>   -10.1137    30.1133    40.7900 </r>
       <r>    -9.9217    16.6950    44.0000 </r>
       <r>    -9.7297     0.0000    44.0000 </r>
       <r>    -9.5377     0.0000    44.0000 </r>
       <r>    -9.3457     0.0000    44.0000 </r>
       <r>    -9.1537     0.0000    44.0000 </r>
       <r>    -8.9618     0.0000    44.0000 </r>
       <r>    -8.7698     0.0000    44.0000 </r>
       <r>    -8.5778     5.2084    44.9999 </r>
       <r>    -8.3858    14.5709    47.7974 </r>
       <r>    -8.1938     1.0549    48.0000 </r>
       <r>    -8.0018     0.0000    48.0000 </r>
       <r>    -7.8098     0.0000    48.0000 </r>
       <r>    -7.6179     0.0000    48.0000 </r>
       <r>    -7.4259     0.0000    48.0000 </r>
       <r>    -7.2339     0.0000    48.0000 </r>
       <r>    -7.0419     0.0000    48.0000 </r>
       <r>    -6.8499     0.0000    48.0000 </r>
       <r>    -6.6579     0.0000    48.0000 </r>
       <r>    -6.4659     0.0000    48.0000 </r>
       <r>    -6.2740     0.6972    48.1339 </r>
       <r>    -6.0820     4.5115    49.0000 </r>
       <r>    -5.8900     0.9224    49.1771 </r>
       <r>    -5.6980    14.6996    51.9992 </r>
       <r>    -5.5060     0.0000    52.0000 </r>
       <r>    -5.3140     0.0000    52.0000 </r>
       <r>    -5.1220     0.0000    52.0000 </r>
       <r>    -4.9301     0.0000    52.0000 </r>
       <r>    -4.7381     0.0000    52.0000 </r>
       <r>    -4.5461     0.0000    52.0000 </r>
       <r>    -4.3541     0.0000    52.0000 </r>
       <r>    -4.1621     0.0000    52.0000 </r>
       <r>    -3.9701     0.0000    52.0000 </r>
       <r>    -3.7781     0.0000    52.0000 </r>
       <r>    -3.5862     0.0000    52.0000 </r>
       <r>    -3.3942     0.1040    52.0200 </r>
       <r>    -3.2022    15.5221    55.0000 </r>
       <r>    -3.0102     0.3807    55.0731 </r>
       <r>    -2.8182     9.0087    56.8026 </r>
       <r>    -2.6262    15.5761    59.7930 </r>
       <r>    -2.4342    20.1942    63.6700 </r>
       <r>    -2.2423     1.7187    64.0000 </r>
       <r>    -2.0503     0.0000    64.0000 </r>
       <r>    -1.8583     0.0000    64.0000 </r>
       <r>    -1.6663     0.0000    64.0000 </r>
       <r>    -1.4743     0.6357    64.1221 </r>
       <r>    -1.2823    33.6477    70.5819 </r>
       <r>    -1.0903    20.1848    74.4620 </r>
       <r>    -0.8984     5.9963    75.6160 </r>
       <r>    -0.7064     2.0318    76.0061 </r>
       <r>    -0.5144    15.3819    78.9592 </r>
       <r>    -0.3224    10.6125    80.9978 </r>
       <r>    -0.1304    22.6562    85.3499 </r>
       <r>     0.0616    28.7442    90.8716 </r>
       <r>     0.2536    24.1468    95.5087 </r>
       <r>     0.4456     2.5341    96.0000 </r>
       <r>     0.6375     6.1234    97.1756 </r>
       <r>     0.8295    22.9360   101.5791 </r>
       <r>     1.0215    22.5638   105.9112 </r>
       <r>     1.2135    29.2011   111.5199 </r>
       <r>     1.4055    28.4353   116.9818 </r>
       <r>     1.5975    14.8643   119.8367 </r>
       <r>     1.7895     0.8508   120.0000 </r>
       <r>     1.9814     0.0000   120.0000 </r>
       <r>     2.1734     0.0000   120.0000 </r>
       <r>     2.3654     0.0000   120.0000 </r>
       <r>     2.5574     0.0000   120.0000 </r>
       <r>     2.7494     0.0000   120.0000 </r>
       <r>     2.9414     0.0000   120.0000 </r>
       <r>     3.1334     0.0000   120.0000 </r>
       <r>     3.3253     0.0000   120.0000 </r>
       <r>     3.5173     0.0000   120.0000 </r>
       <r>     3.7093     0.0000   120.0000 </r>
       <r>     3.9013     0.0000   120.0000 </r>
       <r>     4.0933     0.0000   120.0000 </r>
       <r>     4.2853     3.3160   120.6366 </r>
       <r>     4.4773     1.8927   121.0000 </r>
       <r>     4.6692     0.0000   121.0000 </r>
       <r>     4.8612     0.0000   121.0000 </r>
       <r>     5.0532     0.1765   121.0339 </r>
       <r>     5.2452    15.3866   123.9879 </r>
       <r>     5.4372     0.0625   124.0000 </r>
       <r>     5.6292     0.0008   124.0002 </r>
       <r>     5.8212     6.5778   125.2630 </r>
       <r>     6.0131    18.3896   128.7988 </r>
       <r>     6.2051     6.2572   130.0002 </r>
       <r>     6.3971     8.4242   131.6175 </r>
       <r>     6.5891     8.1283   133.1780 </r>
       <r>     6.7811    14.4651   135.9551 </r>
       <r>     6.9731     5.3866   136.9898 </r>
       <r>     7.1651     1.0269   137.1869 </r>
       <r>     7.3570     9.1460   138.9428 </r>
       <r>     7.5490    10.9821   141.0512 </r>
       <r>     7.7410    14.2292   143.7831 </r>
       <r>     7.9330     9.1736   145.5495 </r>
       <r>     8.1250    12.5478   147.9587 </r>
       <r>     8.3170    14.5505   150.7522 </r>
       <r>     8.5090    15.7988   153.7854 </r>
       <r>     8.7009    15.7434   156.8080 </r>
       <r>     8.8929    17.7544   160.2168 </r>
       <r>     9.0849    18.3161   163.7364 </r>
       <r>     9.2769    20.0515   167.5908 </r>
       <r>     9.4689    17.5792   170.9671 </r>
       <r>     9.6609    15.3759   173.9229 </r>
       <r>     9.8529    10.8178   176.0000 </r>
       <r>    10.0449     0.0000   176.0000 </r>
       <r>    10.2368     0.0000   176.0000 </r>
       <r>    10.4288     0.0000   176.0000 </r>
       <r>    10.6208     0.0000   176.0000 </r>
       <r>    10.8128     0.0000   176.0000 </r>
       <r>    11.0048     0.0000   176.0000 </r>
       <r>    11.1968     0.0000   176.0000 </r>
       <r>    11.3888     0.0000   176.0000 </r>
       <r>    11.5807     0.0000   176.0000 </r>
       <r>    11.7727     0.0000   176.0000 </r>
       <r>    11.9647     0.0000   176.0000 </r>
       <r>    12.1567     0.0000   176.0000 </r>
       <r>    12.3487     0.0000   176.0000 </r>
      </set>
     </set>
    </array>
   </total>
  </dos>
 </calculation>
 <structure name="finalpos" >
  <crystal>
   <varray name="basis" >
    <v>       9.71553889       0.00000000       0.00000000 </v>
    <v>       0.00000000       9.71553889       0.00000000 </v>
    <v>       0.00000000       0.00000000       9.71553889 </v>
   </varray>
   <i name="volume">    917.06619155 </i>
   <varray name="rec_basis" >
    <v>       0.10292790       0.00000000       0.00000000 </v>
    <v>       0.00000000       0.10292790       0.00000000 </v>
    <v>       0.00000000       0.00000000       0.10292790 </v>
   </varray>
  </crystal>
  <varray name="positions" >
   <v>       0.97115310       0.26788013       0.23198547 </v>
   <v>       0.98447163       0.76799694       0.73186866 </v>
   <v>       0.02492672       0.18918240       0.83689668 </v>
   <v>       0.02492672       0.66296891       0.31068319 </v>
   <v>       0.33711032       0.30018633       0.96847478 </v>
   <v>       0.21701410       0.77575284       0.02808410 </v>
   <v>       0.68553098       0.29924979       0.01419147 </v>
   <v>       0.82509303       0.81491971       0.97515140 </v>
   <v>       0.17984055       0.97166795       0.20252845 </v>
   <v>       0.22371972       0.01143252       0.80966037 </v>
   <v>       0.70120925       0.97495754       0.70798037 </v>
   <v>       0.78887132       0.02466325       0.22677788 </v>
   <v>       0.22371972       0.69020522       0.48843307 </v>
   <v>       0.17984055       0.29733714       0.52819764 </v>
   <v>       0.70120925       0.79188522       0.52490805 </v>
   <v>       0.78887132       0.27308772       0.47520234 </v>
   <v>       0.21701410       0.47178150       0.72411276 </v>
   <v>       0.33711032       0.53139081       0.19967927 </v>
   <v>       0.68553098       0.48567412       0.20061580 </v>
   <v>       0.82509303       0.52471419       0.68494588 </v>
   <v>       0.46614614       0.17820918       0.67378354 </v>
   <v>       0.46614614       0.82608206       0.32165641 </v>
   <v>       0.52317495       0.17586630       0.32399929 </v>
   <v>       0.54847727       0.65583873       0.84402686 </v>
   <v>       0.50373078       0.49372820       0.51133121 </v>
   <v>       0.50373078       0.98853438       0.00613739 </v>
   <v>       0.00286414       0.50076601       0.99909959 </v>
   <v>       0.00947960       0.99822171       0.50164389 </v>
   <v>       0.15165729       0.88821981       0.61164578 </v>
   <v>       0.11260798       0.12906581       0.37079978 </v>
   <v>       0.89150447       0.86748040       0.38466276 </v>
   <v>       0.89150447       0.11520283       0.63238519 </v>
   <v>       0.87945145       0.61950620       0.12234427 </v>
   <v>       0.87945145       0.37752133       0.88035940 </v>
   <v>       0.11855822       0.62566839       0.87419720 </v>
   <v>       0.13882978       0.38619841       0.11366719 </v>
   <v>       0.61329841       0.11743608       0.87865476 </v>
   <v>       0.63066449       0.87051352       0.12726603 </v>
   <v>       0.37784505       0.10691786       0.12809194 </v>
   <v>       0.39467374       0.85735612       0.88263558 </v>
   <v>       0.61329841       0.62121083       0.38242952 </v>
   <v>       0.63066449       0.37259956       0.62935207 </v>
   <v>       0.39467374       0.61723002       0.64250947 </v>
   <v>       0.37784505       0.37177365       0.39294774 </v>
   <v>       0.75466439       0.74649594       0.75336965 </v>
   <v>       0.73972189       0.25448947       0.24537612 </v>
   <v>       0.24758223       0.74635689       0.25897488 </v>
   <v>       0.24758223       0.24089071       0.75350870 </v>
   <v>       0.02995910       0.97937734       0.99166788 </v>
   <v>       0.02995910       0.50819772       0.52048826 </v>
   <v>       0.53957343       0.99597665       0.50388895 </v>
   <v>       0.50826925       0.47953208       0.02033351 </v>
  </varray>
 </structure>
</modeling>
