unknown system                          
           1
     9.715539    0.000000    0.000000
     0.000000    9.715539    0.000000
     0.000000    0.000000    9.715539
   Li   P    S    Cl
    24     4    20     4
Direct configuration=     1
   0.97114040  0.26787329  0.23199230
   0.98448352  0.76798881  0.73187679
   0.02493398  0.18918654  0.83689402
   0.02493398  0.66297157  0.31067905
   0.33709802  0.30018998  0.96847768
   0.21701371  0.77576291  0.02808057
   0.68553136  0.29924828  0.01418882
   0.82510036  0.81492351  0.97515443
   0.17984045  0.97166917  0.20252610
   0.22372622  0.01143588  0.80965211
   0.70122093  0.97495322  0.70798743
   0.78879708  0.02465845  0.22684945
   0.22372622  0.69021349  0.48842971
   0.17984045  0.29733949  0.52819642
   0.70122093  0.79187816  0.52491237
   0.78879708  0.27301615  0.47520714
   0.21701371  0.47178502  0.72410269
   0.33709802  0.53138791  0.19967561
   0.68553136  0.48567677  0.20061732
   0.82510036  0.52471117  0.68494208
   0.46615119  0.17821545  0.67378933
   0.46615119  0.82607626  0.32165015
   0.52315349  0.17588317  0.32398243
   0.54848328  0.65584023  0.84402536
   0.50373796  0.49373689  0.51133441
   0.50373796  0.98853119  0.00612870
   0.00286318  0.50076713  0.99909846
   0.00948961  0.99822195  0.50164364
   0.15165199  0.88822196  0.61164363
   0.11260468  0.12906627  0.37079932
   0.89151042  0.86748340  0.38466870
   0.89151042  0.11519689  0.63238220
   0.87945674  0.61950094  0.12234353
   0.87945674  0.37752206  0.88036465
   0.11856591  0.62565705  0.87420854
   0.13881667  0.38619184  0.11367376
   0.61329950  0.11743078  0.87865316
   0.63065598  0.87051289  0.12725489
   0.37784179  0.10691291  0.12807656
   0.39467863  0.85735889  0.88262912
   0.61329950  0.62121243  0.38243481
   0.63065598  0.37261071  0.62935270
   0.39467863  0.61723647  0.64250671
   0.37784179  0.37178904  0.39295268
   0.75467669  0.74649650  0.75336909
   0.73971080  0.25449125  0.24537434
   0.24758681  0.74635886  0.25897027
   0.24758681  0.24089532  0.75350673
   0.02999136  0.97936613  0.99164303
   0.02999136  0.50822257  0.52049946
   0.53959081  0.99599012  0.50387547
   0.50827061  0.47953110  0.02033450
Direct configuration=     2
   0.97114185  0.26787388  0.23199171
   0.98448260  0.76798952  0.73187608
   0.02493345  0.18918609  0.83689427
   0.02493345  0.66297133  0.31067950
   0.33709913  0.30018957  0.96847753
   0.21701390  0.77576206  0.02808082
   0.68553135  0.29924831  0.01418903
   0.82509988  0.81492309  0.97515414
   0.17984062  0.97166907  0.20252634
   0.22372572  0.01143554  0.80965293
   0.70121995  0.97495365  0.70798677
   0.78880332  0.02465883  0.22684373
   0.22372572  0.69021266  0.48843005
   0.17984062  0.29733925  0.52819652
   0.70121995  0.79187883  0.52491194
   0.78880332  0.27302186  0.47520677
   0.21701390  0.47178478  0.72410354
   0.33709913  0.53138807  0.19967602
   0.68553135  0.48567656  0.20061728
   0.82509988  0.52471145  0.68494250
   0.46615067  0.17821481  0.67378884
   0.46615067  0.82607676  0.32165079
   0.52315503  0.17588194  0.32398365
   0.54848262  0.65584018  0.84402542
   0.50373464  0.49373812  0.51133317
   0.50373464  0.98853242  0.00612748
   0.00286381  0.50076516  0.99910044
   0.00949038  0.99822279  0.50164281
   0.15165412  0.88822100  0.61164459
   0.11260565  0.12906655  0.37079904
   0.89150891  0.86748165  0.38466695
   0.89150891  0.11519865  0.63238395
   0.87945510  0.61950272  0.12234441
   0.87945510  0.37752119  0.88036287
   0.11856687  0.62565965  0.87420594
   0.13881842  0.38619238  0.11367322
   0.61330061  0.11743224  0.87865241
   0.63065893  0.87051072  0.12725776
   0.37784190  0.10691380  0.12807865
   0.39467848  0.85735783  0.88262920
   0.61330061  0.62121318  0.38243336
   0.63065893  0.37260783  0.62935488
   0.39467848  0.61723640  0.64250776
   0.37784190  0.37178694  0.39295179
   0.75467535  0.74649607  0.75336953
   0.73971124  0.25449105  0.24537455
   0.24758663  0.74635883  0.25897070
   0.24758663  0.24089489  0.75350677
   0.02998734  0.97936737  0.99164572
   0.02998734  0.50821987  0.52049823
   0.53958729  0.99598867  0.50387692
   0.50827036  0.47953240  0.02033319
Direct configuration=     3
   0.97114270  0.26787423  0.23199137
   0.98448207  0.76798993  0.73187566
   0.02493314  0.18918583  0.83689441
   0.02493314  0.66297119  0.31067977
   0.33709979  0.30018933  0.96847744
   0.21701401  0.77576156  0.02808096
   0.68553134  0.29924833  0.01418916
   0.82509959  0.81492284  0.97515397
   0.17984072  0.97166901  0.20252648
   0.22372543  0.01143534  0.80965341
   0.70121938  0.97495390  0.70798638
   0.78880698  0.02465904  0.22684037
   0.22372543  0.69021218  0.48843025
   0.17984072  0.29733911  0.52819658
   0.70121938  0.79187922  0.52491169
   0.78880698  0.27302522  0.47520655
   0.21701401  0.47178463  0.72410404
   0.33709979  0.53138815  0.19967626
   0.68553134  0.48567644  0.20061726
   0.82509959  0.52471162  0.68494275
   0.46615035  0.17821443  0.67378855
   0.46615035  0.82607704  0.32165116
   0.52315593  0.17588122  0.32398438
   0.54848224  0.65584014  0.84402545
   0.50373269  0.49373884  0.51133245
   0.50373269  0.98853315  0.00612675
   0.00286418  0.50076400  0.99910160
   0.00949083  0.99822328  0.50164231
   0.15165538  0.88822044  0.61164515
   0.11260622  0.12906672  0.37079888
   0.89150802  0.86748062  0.38466592
   0.89150802  0.11519968  0.63238498
   0.87945414  0.61950377  0.12234492
   0.87945414  0.37752067  0.88036183
   0.11856743  0.62566117  0.87420442
   0.13881944  0.38619269  0.11367290
   0.61330126  0.11743309  0.87865197
   0.63066067  0.87050944  0.12725945
   0.37784197  0.10691432  0.12807988
   0.39467839  0.85735722  0.88262924
   0.61330126  0.62121363  0.38243250
   0.63066067  0.37260615  0.62935616
   0.39467839  0.61723635  0.64250838
   0.37784197  0.37178571  0.39295127
   0.75467457  0.74649581  0.75336978
   0.73971150  0.25449093  0.24537467
   0.24758652  0.74635881  0.25897095
   0.24758652  0.24089465  0.75350679
   0.02998498  0.97936809  0.99164731
   0.02998498  0.50821829  0.52049750
   0.53958522  0.99598781  0.50387778
   0.50827021  0.47953317  0.02033243
Direct configuration=     4
   0.97114441  0.26787492  0.23199067
   0.98448099  0.76799077  0.73187483
   0.02493252  0.18918530  0.83689469
   0.02493252  0.66297090  0.31068030
   0.33710110  0.30018885  0.96847726
   0.21701422  0.77576056  0.02808124
   0.68553133  0.29924837  0.01418940
   0.82509903  0.81492235  0.97515364
   0.17984092  0.97166890  0.20252676
   0.22372484  0.01143494  0.80965438
   0.70121823  0.97495441  0.70798560
   0.78881431  0.02465948  0.22683365
   0.22372484  0.69021121  0.48843065
   0.17984092  0.29733884  0.52819670
   0.70121823  0.79188000  0.52491119
   0.78881431  0.27303194  0.47520611
   0.21701422  0.47178435  0.72410503
   0.33710110  0.53138833  0.19967674
   0.68553133  0.48567619  0.20061722
   0.82509903  0.52471196  0.68494325
   0.46614973  0.17821368  0.67378797
   0.46614973  0.82607762  0.32165191
   0.52315775  0.17587977  0.32398582
   0.54848146  0.65584007  0.84402552
   0.50372879  0.49374028  0.51133099
   0.50372879  0.98853460  0.00612531
   0.00286491  0.50076168  0.99910391
   0.00949174  0.99822426  0.50164133
   0.15165789  0.88821932  0.61164628
   0.11260735  0.12906705  0.37079855
   0.89150625  0.86747856  0.38466386
   0.89150625  0.11520174  0.63238703
   0.87945221  0.61950585  0.12234595
   0.87945221  0.37751965  0.88035974
   0.11856856  0.62566422  0.87420137
   0.13882149  0.38619332  0.11367227
   0.61330256  0.11743480  0.87865108
   0.63066414  0.87050688  0.12726282
   0.37784210  0.10691537  0.12808234
   0.39467821  0.85735598  0.88262932
   0.61330256  0.62121451  0.38243079
   0.63066414  0.37260277  0.62935871
   0.39467821  0.61723627  0.64250961
   0.37784210  0.37178325  0.39295023
   0.75467300  0.74649530  0.75337029
   0.73971202  0.25449069  0.24537491
   0.24758631  0.74635876  0.25897145
   0.24758631  0.24089415  0.75350683
   0.02998025  0.97936954  0.99165048
   0.02998025  0.50821512  0.52049605
   0.53958108  0.99598610  0.50387949
   0.50826991  0.47953470  0.02033089
Direct configuration=     5
   0.97114560  0.26787571  0.23198988
   0.98447950  0.76799175  0.73187384
   0.02493141  0.18918475  0.83689497
   0.02493141  0.66297062  0.31068084
   0.33710273  0.30018852  0.96847670
   0.21701411  0.77575924  0.02808164
   0.68553125  0.29924860  0.01418962
   0.82509805  0.81492201  0.97515348
   0.17984074  0.97166856  0.20252699
   0.22372386  0.01143450  0.80965533
   0.70121674  0.97495494  0.70798468
   0.78882245  0.02465979  0.22682554
   0.22372386  0.69021027  0.48843110
   0.17984074  0.29733860  0.52819703
   0.70121674  0.79188091  0.52491065
   0.78882245  0.27304005  0.47520581
   0.21701411  0.47178395  0.72410636
   0.33710273  0.53138890  0.19967708
   0.68553125  0.48567597  0.20061699
   0.82509805  0.52471212  0.68494359
   0.46614936  0.17821300  0.67378723
   0.46614936  0.82607836  0.32165259
   0.52316024  0.17587779  0.32398781
   0.54848103  0.65583976  0.84402584
   0.50373160  0.49373804  0.51133207
   0.50373160  0.98853352  0.00612756
   0.00286395  0.50076363  0.99910196
   0.00949003  0.99822307  0.50164252
   0.15165789  0.88821941  0.61164618
   0.11260825  0.12906766  0.37079793
   0.89150625  0.86747913  0.38466387
   0.89150625  0.11520173  0.63238646
   0.87945223  0.61950584  0.12234550
   0.87945223  0.37752010  0.88035975
   0.11856644  0.62566418  0.87420141
   0.13882406  0.38619310  0.11367250
   0.61330194  0.11743512  0.87865162
   0.63066294  0.87050899  0.12726222
   0.37784179  0.10691645  0.12808451
   0.39467680  0.85735517  0.88262953
   0.61330194  0.62121397  0.38243047
   0.63066294  0.37260337  0.62935660
   0.39467680  0.61723607  0.64251043
   0.37784179  0.37178108  0.39294915
   0.75467166  0.74649526  0.75337034
   0.73971331  0.25449047  0.24537512
   0.24758570  0.74635852  0.25897196
   0.24758570  0.24089363  0.75350708
   0.02997738  0.97937065  0.99165293
   0.02997738  0.50821266  0.52049495
   0.53958021  0.99598478  0.50388081
   0.50826979  0.47953417  0.02033142
Direct configuration=     6
   0.97114782  0.26787718  0.23198841
   0.98447672  0.76799359  0.73187201
   0.02492937  0.18918374  0.83689550
   0.02492937  0.66297010  0.31068186
   0.33710576  0.30018789  0.96847565
   0.21701390  0.77575678  0.02808237
   0.68553112  0.29924902  0.01419002
   0.82509625  0.81492138  0.97515318
   0.17984040  0.97166794  0.20252742
   0.22372204  0.01143368  0.80965708
   0.70121397  0.97495593  0.70798299
   0.78883755  0.02466035  0.22681050
   0.22372204  0.69020851  0.48843192
   0.17984040  0.29733817  0.52819765
   0.70121397  0.79188260  0.52490966
   0.78883755  0.27305509  0.47520524
   0.21701390  0.47178322  0.72410882
   0.33710576  0.53138994  0.19967770
   0.68553112  0.48567557  0.20061657
   0.82509625  0.52471241  0.68494421
   0.46614866  0.17821175  0.67378586
   0.46614866  0.82607974  0.32165384
   0.52316488  0.17587410  0.32399150
   0.54848021  0.65583917  0.84402643
   0.50373681  0.49373387  0.51133408
   0.50373681  0.98853152  0.00613173
   0.00286217  0.50076725  0.99909834
   0.00948688  0.99822085  0.50164474
   0.15165789  0.88821958  0.61164601
   0.11260992  0.12906881  0.37079678
   0.89150626  0.86748018  0.38466389
   0.89150626  0.11520171  0.63238541
   0.87945227  0.61950582  0.12234466
   0.87945227  0.37752093  0.88035978
   0.11856252  0.62566411  0.87420149
   0.13882881  0.38619268  0.11367291
   0.61330078  0.11743572  0.87865262
   0.63066071  0.87051291  0.12726111
   0.37784121  0.10691846  0.12808853
   0.39467418  0.85735366  0.88262990
   0.61330078  0.62121297  0.38242988
   0.63066071  0.37260448  0.62935268
   0.39467418  0.61723569  0.64251193
   0.37784121  0.37177706  0.39294714
   0.75466918  0.74649518  0.75337042
   0.73971572  0.25449008  0.24537551
   0.24758457  0.74635805  0.25897292
   0.24758457  0.24089267  0.75350754
   0.02997207  0.97937269  0.99165748
   0.02997207  0.50820811  0.52049290
   0.53957858  0.99598233  0.50388326
   0.50826956  0.47953318  0.02033241
Direct configuration=     7
   0.97114914  0.26787792  0.23198767
   0.98447545  0.76799442  0.73187117
   0.02492871  0.18918340  0.83689579
   0.02492871  0.66296980  0.31068219
   0.33710690  0.30018750  0.96847543
   0.21701395  0.77575579  0.02808280
   0.68553109  0.29924922  0.01419038
   0.82509545  0.81492096  0.97515273
   0.17984043  0.97166794  0.20252768
   0.22372146  0.01143339  0.80965790
   0.70121279  0.97495634  0.70798233
   0.78884599  0.02466108  0.22680235
   0.22372146  0.69020769  0.48843220
   0.17984043  0.29733791  0.52819765
   0.70121279  0.79188326  0.52490926
   0.78884599  0.27306325  0.47520452
   0.21701395  0.47178279  0.72410980
   0.33710690  0.53139016  0.19967809
   0.68553109  0.48567521  0.20061638
   0.82509545  0.52471286  0.68494463
   0.46614803  0.17821111  0.67378528
   0.46614803  0.82608032  0.32165449
   0.52316740  0.17587215  0.32399345
   0.54847948  0.65583906  0.84402653
   0.50373530  0.49373245  0.51133336
   0.50373530  0.98853223  0.00613314
   0.00286266  0.50076694  0.99909865
   0.00948506  0.99822107  0.50164453
   0.15165774  0.88821964  0.61164595
   0.11260943  0.12906806  0.37079753
   0.89150581  0.86748024  0.38466361
   0.89150581  0.11520199  0.63238535
   0.87945207  0.61950591  0.12234456
   0.87945207  0.37752103  0.88035968
   0.11856144  0.62566518  0.87420042
   0.13882906  0.38619411  0.11367148
   0.61330019  0.11743581  0.87865316
   0.63066165  0.87051306  0.12726234
   0.37784217  0.10691831  0.12808939
   0.39467407  0.85735428  0.88263132
   0.61330019  0.62121244  0.38242979
   0.63066165  0.37260325  0.62935253
   0.39467407  0.61723427  0.64251132
   0.37784217  0.37177621  0.39294729
   0.75466798  0.74649537  0.75337023
   0.73971726  0.25448993  0.24537567
   0.24758399  0.74635776  0.25897341
   0.24758399  0.24089218  0.75350783
   0.02996883  0.97937386  0.99166008
   0.02996883  0.50820551  0.52049174
   0.53957729  0.99598091  0.50388468
   0.50826949  0.47953291  0.02033269
Direct configuration=     8
   0.97115310  0.26788013  0.23198547
   0.98447163  0.76799694  0.73186866
   0.02492672  0.18918240  0.83689668
   0.02492672  0.66296891  0.31068319
   0.33711032  0.30018633  0.96847478
   0.21701410  0.77575284  0.02808410
   0.68553098  0.29924979  0.01419147
   0.82509303  0.81491971  0.97515140
   0.17984055  0.97166795  0.20252845
   0.22371972  0.01143252  0.80966037
   0.70120925  0.97495754  0.70798037
   0.78887132  0.02466325  0.22677788
   0.22371972  0.69020522  0.48843307
   0.17984055  0.29733714  0.52819764
   0.70120925  0.79188522  0.52490805
   0.78887132  0.27308772  0.47520234
   0.21701410  0.47178150  0.72411276
   0.33711032  0.53139081  0.19967927
   0.68553098  0.48567412  0.20061580
   0.82509303  0.52471419  0.68494588
   0.46614614  0.17820918  0.67378354
   0.46614614  0.82608206  0.32165641
   0.52317495  0.17586630  0.32399929
   0.54847727  0.65583873  0.84402686
   0.50373078  0.49372820  0.51133121
   0.50373078  0.98853438  0.00613739
   0.00286414  0.50076601  0.99909959
   0.00947960  0.99822171  0.50164389
   0.15165729  0.88821981  0.61164578
   0.11260798  0.12906581  0.37079978
   0.89150447  0.86748040  0.38466276
   0.89150447  0.11520283  0.63238519
   0.87945145  0.61950620  0.12234427
   0.87945145  0.37752133  0.88035940
   0.11855822  0.62566839  0.87419720
   0.13882978  0.38619841  0.11366719
   0.61329841  0.11743608  0.87865476
   0.63066449  0.87051352  0.12726603
   0.37784505  0.10691786  0.12809194
   0.39467374  0.85735612  0.88263558
   0.61329841  0.62121083  0.38242952
   0.63066449  0.37259956  0.62935207
   0.39467374  0.61723002  0.64250947
   0.37784505  0.37177365  0.39294774
   0.75466439  0.74649594  0.75336965
   0.73972189  0.25448947  0.24537612
   0.24758223  0.74635689  0.25897488
   0.24758223  0.24089071  0.75350870
   0.02995910  0.97937734  0.99166788
   0.02995910  0.50819772  0.52048826
   0.53957343  0.99597665  0.50388895
   0.50826925  0.47953208  0.02033351
