  52  52   0  16
  0.1754933E+02  0.9699618E-09  0.9699618E-09  0.9699618E-09  0.2000000E-15
  1.000000000000000E-004
  CAR 
 unknown system                          
     12.48485015    -45.35482700  301      1.92910907      1.00000000
    -45.355  0.0000E+00  0.0000E+00  0.0000E+00  0.0000E+00
    -45.162  0.0000E+00  0.0000E+00  0.0000E+00  0.0000E+00
    -44.969  0.0000E+00  0.0000E+00  0.0000E+00  0.0000E+00
    -44.776  0.0000E+00  0.0000E+00  0.0000E+00  0.0000E+00
    -44.584  0.0000E+00  0.0000E+00  0.0000E+00  0.0000E+00
    -44.391  0.0000E+00  0.0000E+00  0.0000E+00  0.0000E+00
    -44.198  0.0000E+00  0.0000E+00  0.0000E+00  0.0000E+00
    -44.005  0.0000E+00  0.0000E+00  0.0000E+00  0.0000E+00
    -43.812  0.0000E+00  0.0000E+00  0.0000E+00  0.0000E+00
    -43.620  0.0000E+00  0.0000E+00  0.0000E+00  0.0000E+00
    -43.427  0.0000E+00  0.0000E+00  0.0000E+00  0.0000E+00
    -43.234  0.0000E+00  0.0000E+00  0.0000E+00  0.0000E+00
    -43.041  0.0000E+00  0.0000E+00  0.0000E+00  0.0000E+00
    -42.848  0.1891E-10  0.1891E-10  0.3646E-11  0.3646E-11
    -42.656  0.2336E-01  0.2336E-01  0.4504E-02  0.4504E-02
    -42.463  0.5546E-01  0.5546E-01  0.1520E-01  0.1520E-01
    -42.270  0.3972E-01  0.3972E-01  0.2287E-01  0.2287E-01
    -42.077  0.5851E-02  0.5851E-02  0.2400E-01  0.2400E-01
    -41.884  0.0000E+00  0.0000E+00  0.2400E-01  0.2400E-01
    -41.692  0.0000E+00  0.0000E+00  0.2400E-01  0.2400E-01
    -41.499  0.0000E+00  0.0000E+00  0.2400E-01  0.2400E-01
    -41.306  0.0000E+00  0.0000E+00  0.2400E-01  0.2400E-01
    -41.113  0.0000E+00  0.0000E+00  0.2400E-01  0.2400E-01
    -40.920  0.0000E+00  0.0000E+00  0.2400E-01  0.2400E-01
    -40.728  0.0000E+00  0.0000E+00  0.2400E-01  0.2400E-01
    -40.535  0.0000E+00  0.0000E+00  0.2400E-01  0.2400E-01
    -40.342  0.0000E+00  0.0000E+00  0.2400E-01  0.2400E-01
    -40.149  0.0000E+00  0.0000E+00  0.2400E-01  0.2400E-01
    -39.956  0.0000E+00  0.0000E+00  0.2400E-01  0.2400E-01
    -39.764  0.0000E+00  0.0000E+00  0.2400E-01  0.2400E-01
    -39.571  0.0000E+00  0.0000E+00  0.2400E-01  0.2400E-01
    -39.378  0.0000E+00  0.0000E+00  0.2400E-01  0.2400E-01
    -39.185  0.0000E+00  0.0000E+00  0.2400E-01  0.2400E-01
    -38.992  0.0000E+00  0.0000E+00  0.2400E-01  0.2400E-01
    -38.800  0.0000E+00  0.0000E+00  0.2400E-01  0.2400E-01
    -38.607  0.0000E+00  0.0000E+00  0.2400E-01  0.2400E-01
    -38.414  0.0000E+00  0.0000E+00  0.2400E-01  0.2400E-01
    -38.221  0.0000E+00  0.0000E+00  0.2400E-01  0.2400E-01
    -38.028  0.0000E+00  0.0000E+00  0.2400E-01  0.2400E-01
    -37.836  0.0000E+00  0.0000E+00  0.2400E-01  0.2400E-01
    -37.643  0.0000E+00  0.0000E+00  0.2400E-01  0.2400E-01
    -37.450  0.0000E+00  0.0000E+00  0.2400E-01  0.2400E-01
    -37.257  0.0000E+00  0.0000E+00  0.2400E-01  0.2400E-01
    -37.064  0.0000E+00  0.0000E+00  0.2400E-01  0.2400E-01
    -36.872  0.0000E+00  0.0000E+00  0.2400E-01  0.2400E-01
    -36.679  0.0000E+00  0.0000E+00  0.2400E-01  0.2400E-01
    -36.486  0.0000E+00  0.0000E+00  0.2400E-01  0.2400E-01
    -36.293  0.0000E+00  0.0000E+00  0.2400E-01  0.2400E-01
    -36.100  0.0000E+00  0.0000E+00  0.2400E-01  0.2400E-01
    -35.908  0.0000E+00  0.0000E+00  0.2400E-01  0.2400E-01
    -35.715  0.0000E+00  0.0000E+00  0.2400E-01  0.2400E-01
    -35.522  0.0000E+00  0.0000E+00  0.2400E-01  0.2400E-01
    -35.329  0.0000E+00  0.0000E+00  0.2400E-01  0.2400E-01
    -35.136  0.0000E+00  0.0000E+00  0.2400E-01  0.2400E-01
    -34.944  0.0000E+00  0.0000E+00  0.2400E-01  0.2400E-01
    -34.751  0.0000E+00  0.0000E+00  0.2400E-01  0.2400E-01
    -34.558  0.0000E+00  0.0000E+00  0.2400E-01  0.2400E-01
    -34.365  0.0000E+00  0.0000E+00  0.2400E-01  0.2400E-01
    -34.172  0.0000E+00  0.0000E+00  0.2400E-01  0.2400E-01
    -33.980  0.0000E+00  0.0000E+00  0.2400E-01  0.2400E-01
    -33.787  0.0000E+00  0.0000E+00  0.2400E-01  0.2400E-01
    -33.594  0.0000E+00  0.0000E+00  0.2400E-01  0.2400E-01
    -33.401  0.0000E+00  0.0000E+00  0.2400E-01  0.2400E-01
    -33.208  0.0000E+00  0.0000E+00  0.2400E-01  0.2400E-01
    -33.016  0.0000E+00  0.0000E+00  0.2400E-01  0.2400E-01
    -32.823  0.0000E+00  0.0000E+00  0.2400E-01  0.2400E-01
    -32.630  0.0000E+00  0.0000E+00  0.2400E-01  0.2400E-01
    -32.437  0.0000E+00  0.0000E+00  0.2400E-01  0.2400E-01
    -32.245  0.0000E+00  0.0000E+00  0.2400E-01  0.2400E-01
    -32.052  0.0000E+00  0.0000E+00  0.2400E-01  0.2400E-01
    -31.859  0.0000E+00  0.0000E+00  0.2400E-01  0.2400E-01
    -31.666  0.0000E+00  0.0000E+00  0.2400E-01  0.2400E-01
    -31.473  0.0000E+00  0.0000E+00  0.2400E-01  0.2400E-01
    -31.281  0.0000E+00  0.0000E+00  0.2400E-01  0.2400E-01
    -31.088  0.0000E+00  0.0000E+00  0.2400E-01  0.2400E-01
    -30.895  0.0000E+00  0.0000E+00  0.2400E-01  0.2400E-01
    -30.702  0.0000E+00  0.0000E+00  0.2400E-01  0.2400E-01
    -30.509  0.0000E+00  0.0000E+00  0.2400E-01  0.2400E-01
    -30.317  0.0000E+00  0.0000E+00  0.2400E-01  0.2400E-01
    -30.124  0.0000E+00  0.0000E+00  0.2400E-01  0.2400E-01
    -29.931  0.0000E+00  0.0000E+00  0.2400E-01  0.2400E-01
    -29.738  0.0000E+00  0.0000E+00  0.2400E-01  0.2400E-01
    -29.545  0.0000E+00  0.0000E+00  0.2400E-01  0.2400E-01
    -29.353  0.0000E+00  0.0000E+00  0.2400E-01  0.2400E-01
    -29.160  0.0000E+00  0.0000E+00  0.2400E-01  0.2400E-01
    -28.967  0.0000E+00  0.0000E+00  0.2400E-01  0.2400E-01
    -28.774  0.0000E+00  0.0000E+00  0.2400E-01  0.2400E-01
    -28.581  0.0000E+00  0.0000E+00  0.2400E-01  0.2400E-01
    -28.389  0.0000E+00  0.0000E+00  0.2400E-01  0.2400E-01
    -28.196  0.0000E+00  0.0000E+00  0.2400E-01  0.2400E-01
    -28.003  0.0000E+00  0.0000E+00  0.2400E-01  0.2400E-01
    -27.810  0.0000E+00  0.0000E+00  0.2400E-01  0.2400E-01
    -27.617  0.0000E+00  0.0000E+00  0.2400E-01  0.2400E-01
    -27.425  0.0000E+00  0.0000E+00  0.2400E-01  0.2400E-01
    -27.232  0.0000E+00  0.0000E+00  0.2400E-01  0.2400E-01
    -27.039  0.0000E+00  0.0000E+00  0.2400E-01  0.2400E-01
    -26.846  0.0000E+00  0.0000E+00  0.2400E-01  0.2400E-01
    -26.653  0.0000E+00  0.0000E+00  0.2400E-01  0.2400E-01
    -26.461  0.0000E+00  0.0000E+00  0.2400E-01  0.2400E-01
    -26.268  0.0000E+00  0.0000E+00  0.2400E-01  0.2400E-01
    -26.075  0.0000E+00  0.0000E+00  0.2400E-01  0.2400E-01
    -25.882  0.0000E+00  0.0000E+00  0.2400E-01  0.2400E-01
    -25.689  0.0000E+00  0.0000E+00  0.2400E-01  0.2400E-01
    -25.497  0.0000E+00  0.0000E+00  0.2400E-01  0.2400E-01
    -25.304  0.0000E+00  0.0000E+00  0.2400E-01  0.2400E-01
    -25.111  0.0000E+00  0.0000E+00  0.2400E-01  0.2400E-01
    -24.918  0.0000E+00  0.0000E+00  0.2400E-01  0.2400E-01
    -24.725  0.0000E+00  0.0000E+00  0.2400E-01  0.2400E-01
    -24.533  0.0000E+00  0.0000E+00  0.2400E-01  0.2400E-01
    -24.340  0.0000E+00  0.0000E+00  0.2400E-01  0.2400E-01
    -24.147  0.0000E+00  0.0000E+00  0.2400E-01  0.2400E-01
    -23.954  0.0000E+00  0.0000E+00  0.2400E-01  0.2400E-01
    -23.761  0.0000E+00  0.0000E+00  0.2400E-01  0.2400E-01
    -23.569  0.0000E+00  0.0000E+00  0.2400E-01  0.2400E-01
    -23.376  0.0000E+00  0.0000E+00  0.2400E-01  0.2400E-01
    -23.183  0.0000E+00  0.0000E+00  0.2400E-01  0.2400E-01
    -22.990  0.0000E+00  0.0000E+00  0.2400E-01  0.2400E-01
    -22.797  0.0000E+00  0.0000E+00  0.2400E-01  0.2400E-01
    -22.605  0.0000E+00  0.0000E+00  0.2400E-01  0.2400E-01
    -22.412  0.0000E+00  0.0000E+00  0.2400E-01  0.2400E-01
    -22.219  0.0000E+00  0.0000E+00  0.2400E-01  0.2400E-01
    -22.026  0.0000E+00  0.0000E+00  0.2400E-01  0.2400E-01
    -21.833  0.0000E+00  0.0000E+00  0.2400E-01  0.2400E-01
    -21.641  0.0000E+00  0.0000E+00  0.2400E-01  0.2400E-01
    -21.448  0.0000E+00  0.0000E+00  0.2400E-01  0.2400E-01
    -21.255  0.0000E+00  0.0000E+00  0.2400E-01  0.2400E-01
    -21.062  0.0000E+00  0.0000E+00  0.2400E-01  0.2400E-01
    -20.869  0.0000E+00  0.0000E+00  0.2400E-01  0.2400E-01
    -20.677  0.0000E+00  0.0000E+00  0.2400E-01  0.2400E-01
    -20.484  0.0000E+00  0.0000E+00  0.2400E-01  0.2400E-01
    -20.291  0.0000E+00  0.0000E+00  0.2400E-01  0.2400E-01
    -20.098  0.0000E+00  0.0000E+00  0.2400E-01  0.2400E-01
    -19.905  0.0000E+00  0.0000E+00  0.2400E-01  0.2400E-01
    -19.713  0.0000E+00  0.0000E+00  0.2400E-01  0.2400E-01
    -19.520  0.0000E+00  0.0000E+00  0.2400E-01  0.2400E-01
    -19.327  0.0000E+00  0.0000E+00  0.2400E-01  0.2400E-01
    -19.134  0.0000E+00  0.0000E+00  0.2400E-01  0.2400E-01
    -18.941  0.0000E+00  0.0000E+00  0.2400E-01  0.2400E-01
    -18.749  0.0000E+00  0.0000E+00  0.2400E-01  0.2400E-01
    -18.556  0.0000E+00  0.0000E+00  0.2400E-01  0.2400E-01
    -18.363  0.0000E+00  0.0000E+00  0.2400E-01  0.2400E-01
    -18.170  0.0000E+00  0.0000E+00  0.2400E-01  0.2400E-01
    -17.977  0.0000E+00  0.0000E+00  0.2400E-01  0.2400E-01
    -17.785  0.0000E+00  0.0000E+00  0.2400E-01  0.2400E-01
    -17.592  0.0000E+00  0.0000E+00  0.2400E-01  0.2400E-01
    -17.399  0.0000E+00  0.0000E+00  0.2400E-01  0.2400E-01
    -17.206  0.0000E+00  0.0000E+00  0.2400E-01  0.2400E-01
    -17.013  0.0000E+00  0.0000E+00  0.2400E-01  0.2400E-01
    -16.821  0.0000E+00  0.0000E+00  0.2400E-01  0.2400E-01
    -16.628  0.0000E+00  0.0000E+00  0.2400E-01  0.2400E-01
    -16.435  0.0000E+00  0.0000E+00  0.2400E-01  0.2400E-01
    -16.242  0.0000E+00  0.0000E+00  0.2400E-01  0.2400E-01
    -16.049  0.0000E+00  0.0000E+00  0.2400E-01  0.2400E-01
    -15.857  0.0000E+00  0.0000E+00  0.2400E-01  0.2400E-01
    -15.664  0.0000E+00  0.0000E+00  0.2400E-01  0.2400E-01
    -15.471  0.0000E+00  0.0000E+00  0.2400E-01  0.2400E-01
    -15.278  0.0000E+00  0.0000E+00  0.2400E-01  0.2400E-01
    -15.085  0.0000E+00  0.0000E+00  0.2400E-01  0.2400E-01
    -14.893  0.0000E+00  0.0000E+00  0.2400E-01  0.2400E-01
    -14.700  0.0000E+00  0.0000E+00  0.2400E-01  0.2400E-01
    -14.507  0.0000E+00  0.0000E+00  0.2400E-01  0.2400E-01
    -14.314  0.0000E+00  0.0000E+00  0.2400E-01  0.2400E-01
    -14.121  0.0000E+00  0.0000E+00  0.2400E-01  0.2400E-01
    -13.929  0.0000E+00  0.0000E+00  0.2400E-01  0.2400E-01
    -13.736  0.0000E+00  0.0000E+00  0.2400E-01  0.2400E-01
    -13.543  0.0000E+00  0.0000E+00  0.2400E-01  0.2400E-01
    -13.350  0.1008E-17  0.1008E-17  0.2400E-01  0.2400E-01
    -13.157  0.4839E-02  0.4840E-02  0.2493E-01  0.2493E-01
    -12.965  0.1295E-01  0.1295E-01  0.2743E-01  0.2743E-01
    -12.772  0.2962E-02  0.2962E-02  0.2800E-01  0.2800E-01
    -12.579  0.1629E-01  0.1629E-01  0.3114E-01  0.3114E-01
    -12.386  0.4454E-02  0.4454E-02  0.3200E-01  0.3200E-01
    -12.193  0.0000E+00  0.0000E+00  0.3200E-01  0.3200E-01
    -12.001  0.0000E+00  0.0000E+00  0.3200E-01  0.3200E-01
    -11.808  0.0000E+00  0.0000E+00  0.3200E-01  0.3200E-01
    -11.615  0.0000E+00  0.0000E+00  0.3200E-01  0.3200E-01
    -11.422  0.0000E+00  0.0000E+00  0.3200E-01  0.3200E-01
    -11.229  0.0000E+00  0.0000E+00  0.3200E-01  0.3200E-01
    -11.037  0.0000E+00  0.0000E+00  0.3200E-01  0.3200E-01
    -10.844  0.0000E+00  0.0000E+00  0.3200E-01  0.3200E-01
    -10.651  0.0000E+00  0.0000E+00  0.3200E-01  0.3200E-01
    -10.458  0.8923E-05  0.8923E-05  0.3200E-01  0.3200E-01
    -10.265  0.1537E-01  0.1537E-01  0.3497E-01  0.3497E-01
    -10.073  0.2048E-01  0.2048E-01  0.3892E-01  0.3892E-01
     -9.880  0.2069E-01  0.2069E-01  0.4291E-01  0.4291E-01
     -9.687  0.5645E-02  0.5645E-02  0.4400E-01  0.4400E-01
     -9.494  0.0000E+00  0.0000E+00  0.4400E-01  0.4400E-01
     -9.301  0.0000E+00  0.0000E+00  0.4400E-01  0.4400E-01
     -9.109  0.0000E+00  0.0000E+00  0.4400E-01  0.4400E-01
     -8.916  0.0000E+00  0.0000E+00  0.4400E-01  0.4400E-01
     -8.723  0.5268E-15  0.5268E-15  0.4400E-01  0.4400E-01
     -8.530  0.4977E-02  0.4977E-02  0.4496E-01  0.4496E-01
     -8.337  0.1576E-01  0.1576E-01  0.4800E-01  0.4800E-01
     -8.145  0.0000E+00  0.0000E+00  0.4800E-01  0.4800E-01
     -7.952  0.0000E+00  0.0000E+00  0.4800E-01  0.4800E-01
     -7.759  0.0000E+00  0.0000E+00  0.4800E-01  0.4800E-01
     -7.566  0.0000E+00  0.0000E+00  0.4800E-01  0.4800E-01
     -7.373  0.0000E+00  0.0000E+00  0.4800E-01  0.4800E-01
     -7.181  0.0000E+00  0.0000E+00  0.4800E-01  0.4800E-01
     -6.988  0.0000E+00  0.0000E+00  0.4800E-01  0.4800E-01
     -6.795  0.0000E+00  0.0000E+00  0.4800E-01  0.4800E-01
     -6.602  0.0000E+00  0.0000E+00  0.4800E-01  0.4800E-01
     -6.409  0.0000E+00  0.0000E+00  0.4800E-01  0.4800E-01
     -6.217  0.8729E-03  0.8729E-03  0.4817E-01  0.4817E-01
     -6.024  0.4314E-02  0.4314E-02  0.4900E-01  0.4900E-01
     -5.831  0.4756E-02  0.4756E-02  0.4992E-01  0.4992E-01
     -5.638  0.5975E-02  0.5975E-02  0.5107E-01  0.5107E-01
     -5.445  0.4826E-02  0.4826E-02  0.5200E-01  0.5200E-01
     -5.253  0.0000E+00  0.0000E+00  0.5200E-01  0.5200E-01
     -5.060  0.0000E+00  0.0000E+00  0.5200E-01  0.5200E-01
     -4.867  0.0000E+00  0.0000E+00  0.5200E-01  0.5200E-01
     -4.674  0.0000E+00  0.0000E+00  0.5200E-01  0.5200E-01
     -4.481  0.0000E+00  0.0000E+00  0.5200E-01  0.5200E-01
     -4.289  0.0000E+00  0.0000E+00  0.5200E-01  0.5200E-01
     -4.096  0.0000E+00  0.0000E+00  0.5200E-01  0.5200E-01
     -3.903  0.0000E+00  0.0000E+00  0.5200E-01  0.5200E-01
     -3.710  0.0000E+00  0.0000E+00  0.5200E-01  0.5200E-01
     -3.517  0.0000E+00  0.0000E+00  0.5200E-01  0.5200E-01
     -3.325  0.1866E-02  0.1866E-02  0.5236E-01  0.5236E-01
     -3.132  0.1369E-01  0.1369E-01  0.5500E-01  0.5500E-01
     -2.939  0.8103E-03  0.8103E-03  0.5516E-01  0.5516E-01
     -2.746  0.1265E-01  0.1265E-01  0.5760E-01  0.5760E-01
     -2.553  0.1128E-01  0.1128E-01  0.5977E-01  0.5977E-01
     -2.361  0.1526E-01  0.1526E-01  0.6271E-01  0.6271E-01
     -2.168  0.6653E-02  0.6653E-02  0.6400E-01  0.6400E-01
     -1.975  0.0000E+00  0.0000E+00  0.6400E-01  0.6400E-01
     -1.782  0.0000E+00  0.0000E+00  0.6400E-01  0.6400E-01
     -1.589  0.4291E-03  0.4291E-03  0.6408E-01  0.6408E-01
     -1.397  0.2089E-01  0.2089E-01  0.6811E-01  0.6811E-01
     -1.204  0.2251E-01  0.2251E-01  0.7245E-01  0.7245E-01
     -1.011  0.1840E-01  0.1840E-01  0.7600E-01  0.7600E-01
     -0.818  0.5039E-17  0.5039E-17  0.7600E-01  0.7600E-01
     -0.625  0.4173E-02  0.4173E-02  0.7680E-01  0.7680E-01
     -0.433  0.1143E-01  0.1143E-01  0.7901E-01  0.7901E-01
     -0.240  0.1541E-01  0.1541E-01  0.8198E-01  0.8198E-01
     -0.047  0.2425E-01  0.2425E-01  0.8665E-01  0.8665E-01
      0.146  0.2452E-01  0.2452E-01  0.9138E-01  0.9138E-01
      0.339  0.2148E-01  0.2148E-01  0.9552E-01  0.9552E-01
      0.531  0.2465E-02  0.2465E-02  0.9600E-01  0.9600E-01
      0.724  0.9553E-02  0.9553E-02  0.9784E-01  0.9784E-01
      0.917  0.2513E-01  0.2513E-01  0.1027E+00  0.1027E+00
      1.110  0.2173E-01  0.2173E-01  0.1069E+00  0.1069E+00
      1.303  0.2801E-01  0.2801E-01  0.1123E+00  0.1123E+00
      1.495  0.2149E-01  0.2149E-01  0.1164E+00  0.1164E+00
      1.688  0.1574E-01  0.1574E-01  0.1195E+00  0.1195E+00
      1.881  0.2787E-02  0.2787E-02  0.1200E+00  0.1200E+00
      2.074  0.0000E+00  0.0000E+00  0.1200E+00  0.1200E+00
      2.267  0.0000E+00  0.0000E+00  0.1200E+00  0.1200E+00
      2.459  0.0000E+00  0.0000E+00  0.1200E+00  0.1200E+00
      2.652  0.0000E+00  0.0000E+00  0.1200E+00  0.1200E+00
      2.845  0.0000E+00  0.0000E+00  0.1200E+00  0.1200E+00
      3.038  0.0000E+00  0.0000E+00  0.1200E+00  0.1200E+00
      3.231  0.0000E+00  0.0000E+00  0.1200E+00  0.1200E+00
      3.423  0.0000E+00  0.0000E+00  0.1200E+00  0.1200E+00
      3.616  0.0000E+00  0.0000E+00  0.1200E+00  0.1200E+00
      3.809  0.0000E+00  0.0000E+00  0.1200E+00  0.1200E+00
      4.002  0.0000E+00  0.0000E+00  0.1200E+00  0.1200E+00
      4.194  0.9549E-11  0.9549E-11  0.1200E+00  0.1200E+00
      4.387  0.4650E-02  0.4650E-02  0.1209E+00  0.1209E+00
      4.580  0.5368E-03  0.5368E-03  0.1210E+00  0.1210E+00
      4.773  0.0000E+00  0.0000E+00  0.1210E+00  0.1210E+00
      4.966  0.3167E-11  0.3167E-11  0.1210E+00  0.1210E+00
      5.158  0.5671E-02  0.5671E-02  0.1221E+00  0.1221E+00
      5.351  0.8056E-02  0.8056E-02  0.1236E+00  0.1236E+00
      5.544  0.1829E-02  0.1829E-02  0.1240E+00  0.1240E+00
      5.737  0.1244E-03  0.1244E-03  0.1240E+00  0.1240E+00
      5.930  0.1358E-01  0.1358E-01  0.1266E+00  0.1266E+00
      6.122  0.1459E-01  0.1459E-01  0.1295E+00  0.1295E+00
      6.315  0.2861E-02  0.2861E-02  0.1300E+00  0.1300E+00
      6.508  0.9925E-02  0.9925E-02  0.1319E+00  0.1319E+00
      6.701  0.7959E-02  0.7959E-02  0.1335E+00  0.1335E+00
      6.894  0.1306E-01  0.1306E-01  0.1360E+00  0.1360E+00
      7.086  0.5320E-02  0.5320E-02  0.1370E+00  0.1370E+00
      7.279  0.6321E-02  0.6321E-02  0.1382E+00  0.1382E+00
      7.472  0.7247E-02  0.7247E-02  0.1396E+00  0.1396E+00
      7.665  0.1230E-01  0.1230E-01  0.1420E+00  0.1420E+00
      7.858  0.1349E-01  0.1349E-01  0.1446E+00  0.1446E+00
      8.050  0.1455E-01  0.1455E-01  0.1474E+00  0.1474E+00
      8.243  0.1642E-01  0.1642E-01  0.1506E+00  0.1506E+00
      8.436  0.1169E-01  0.1169E-01  0.1528E+00  0.1528E+00
      8.629  0.1513E-01  0.1513E-01  0.1557E+00  0.1557E+00
      8.822  0.1392E-01  0.1392E-01  0.1584E+00  0.1584E+00
      9.014  0.1851E-01  0.1851E-01  0.1620E+00  0.1620E+00
      9.207  0.1990E-01  0.1990E-01  0.1658E+00  0.1658E+00
      9.400  0.1643E-01  0.1643E-01  0.1690E+00  0.1690E+00
      9.593  0.1747E-01  0.1752E-01  0.1724E+00  0.1724E+00
      9.786  0.1523E-01  0.1480E-01  0.1753E+00  0.1752E+00
      9.978  0.3531E-02  0.3904E-02  0.1760E+00  0.1760E+00
     10.171  0.0000E+00  0.0000E+00  0.1760E+00  0.1760E+00
     10.364  0.0000E+00  0.0000E+00  0.1760E+00  0.1760E+00
     10.557  0.0000E+00  0.0000E+00  0.1760E+00  0.1760E+00
     10.750  0.0000E+00  0.0000E+00  0.1760E+00  0.1760E+00
     10.942  0.0000E+00  0.0000E+00  0.1760E+00  0.1760E+00
     11.135  0.0000E+00  0.0000E+00  0.1760E+00  0.1760E+00
     11.328  0.0000E+00  0.0000E+00  0.1760E+00  0.1760E+00
     11.521  0.0000E+00  0.0000E+00  0.1760E+00  0.1760E+00
     11.714  0.0000E+00  0.0000E+00  0.1760E+00  0.1760E+00
     11.906  0.0000E+00  0.0000E+00  0.1760E+00  0.1760E+00
     12.099  0.0000E+00  0.0000E+00  0.1760E+00  0.1760E+00
     12.292  0.0000E+00  0.0000E+00  0.1760E+00  0.1760E+00
     12.485  0.0000E+00  0.0000E+00  0.1760E+00  0.1760E+00
