 vasp.6.4.1 05Apr23 (build Jun 07 2023 15:38:11) complex                        
  
 executed on             LinuxIFC date 2023.10.29  19:36:25
 running  128 mpi-ranks, with    1 threads/rank, on    1 nodes
 distrk:  each k-point on  128 cores,    1 groups
 distr:  one band on NCORE=  32 cores,    4 groups


--------------------------------------------------------------------------------------------------------


 INCAR:
   GGA = PE
   PREC = Accu
   EDIFF = 1.e-6
   EDIFFG = -1.e-3
   ENCUT = 520.
   NELM = 100
   NELMDL = -10
   LASPH = .TRUE.
   LREAL = Auto
   LMAXMIX = 4
   ISPIN = 2
   LDIAG = .TRUE.
   LPLANE = .TRUE.
   IVDW = 12
   SIGMA = 0.03
   ISMEAR = 0
   NSW = 1000    number of steps for IOM
   IBRION = 2    ionic relax: 0-MD 1-quasi-New 2-CG
   ISIF = 2    ionic relaxation + stress tensor calcn.
   LCHARG = .FALSE.
   LWAVE = .FALSE.
   ALGO = F
   KPAR = 1
   NPAR = 4
   POTIM = 0.2

 POTCAR:    PAW_PBE Li_sv_GW 25Mar2010            
 POTCAR:    PAW_PBE P_GW 19Mar2012                
 POTCAR:    PAW_PBE S_GW 19Mar2012                
 POTCAR:    PAW_PBE Cl_GW 19Mar2012               
 -----------------------------------------------------------------------------
|                                                                             |
|           W    W    AA    RRRRR   N    N  II  N    N   GGGG   !!!           |
|           W    W   A  A   R    R  NN   N  II  NN   N  G    G  !!!           |
|           W    W  A    A  R    R  N N  N  II  N N  N  G       !!!           |
|           W WW W  AAAAAA  RRRRR   N  N N  II  N  N N  G  GGG   !            |
|           WW  WW  A    A  R   R   N   NN  II  N   NN  G    G                |
|           W    W  A    A  R    R  N    N  II  N    N   GGGG   !!!           |
|                                                                             |
|     You use a magnetic or noncollinear calculation, but did not specify     |
|     the initial magnetic moment with the MAGMOM tag. Note that a            |
|     default of 1 will be used for all atoms. This ferromagnetic setup       |
|     may break the symmetry of the crystal, in particular it may rule        |
|     out finding an antiferromagnetic solution. Thence, we recommend         |
|     setting the initial magnetic moment manually or verifying carefully     |
|     that this magnetic setup is desired.                                    |
|                                                                             |
 -----------------------------------------------------------------------------

 POTCAR:    PAW_PBE Li_sv_GW 25Mar2010            
   SHA256 =  24a6ace15a582615486b36ce4dc781b048409f4015b7684ed1273ae395fa2fdc Li_sv_GW/POTCAR       
   COPYR  = (c) Copyright 25Mar2010 Georg Kresse                                                    
   COPYR  = This file is part of the software VASP. Any use, copying, and all other rights are regul
   COPYR  = If you do not have a valid VASP license, you may not use, copy or distribute this file. 
   VRHFIN =Li: 1s2s                                                                                 
   LEXCH  = PE                                                                                      
   EATOM  =   200.9989 eV,   14.7730 Ry                                                             
                                                                                                    
   TITEL  = PAW_PBE Li_sv_GW 25Mar2010                                                              
   LULTRA =        F    use ultrasoft PP ?                                                          
   IUNSCR =        0    unscreen: 0-lin 1-nonlin 2-no                                               
   RPACOR =    0.000    partial core radius                                                         
   POMASS =    7.010; ZVAL   =    3.000    mass and valenz                                          
   RCORE  =    1.500    outmost cutoff radius                                                       
   RWIGS  =    1.600; RWIGS  =    0.847    wigner-seitz radius (au A)                               
   ENMAX  =  433.699; ENMIN  =  325.274 eV                                                          
   RCLOC  =    1.003    cutoff for local pot                                                        
   LCOR   =        T    correct aug charges                                                         
   LPAW   =        T    paw PP                                                                      
   EAUG   = 1041.699                                                                                
   RMAX   =    1.536    core radius for proj-oper                                                   
   RAUG   =    1.300    factor for augmentation sphere                                              
   RDEP   =    1.520    radius for radial grids                                                     
   RDEPT  =    1.300    core radius for aug-charge                                                  
                                                                                                    
   Atomic configuration                                                                             
    4 entries                                                                                       
     n  l   j            E        occ.                                                              
     1  0  0.50       -53.3604   2.0000                                                             
     1  0  0.50       -52.0001   0.0000                                                             
     2  1  0.50        -1.5636   1.0000                                                             
     3  2  1.50        -1.3606   0.0000                                                             
   Description                                                                                      
     l       E           TYP  RCUT    TYP  RCUT                                                     
     0    -53.3603633     23  1.200                                                                 
     0    -52.0001064     23  1.200                                                                 
     0    176.8757380     23  1.300                                                                 
     1     -1.5635925     23  1.500                                                                 
     1    108.8466080     23  1.500                                                                 
     2     81.6349560     23  1.500                                                                 
  local pseudopotential read in
  kinetic energy density of atom read in
  atomic valenz-charges read in
  non local Contribution for L=           0  read in
    real space projection operators read in
  non local Contribution for L=           0  read in
    real space projection operators read in
  non local Contribution for L=           0  read in
    real space projection operators read in
  non local Contribution for L=           1  read in
    real space projection operators read in
  non local Contribution for L=           1  read in
    real space projection operators read in
  non local Contribution for L=           2  read in
    real space projection operators read in
    PAW grid and wavefunctions read in
 
   number of l-projection  operators is LMAX  =           6
   number of lm-projection operators is LMMAX =          14
 
 POTCAR:    PAW_PBE P_GW 19Mar2012                
   SHA256 =  715c28f2291d37b61637ce89646c59f66f71c8b8d8bfba631e5feb9f7b42defe P_GW/POTCAR           
   COPYR  = (c) Copyright 19Mar2012 Georg Kresse                                                    
   COPYR  = This file is part of the software VASP. Any use, copying, and all other rights are regul
   COPYR  = If you do not have a valid VASP license, you may not use, copy or distribute this file. 
   VRHFIN =P : s2p3                                                                                 
   LEXCH  = PE                                                                                      
   EATOM  =   176.0430 eV,   12.9388 Ry                                                             
                                                                                                    
   TITEL  = PAW_PBE P_GW 19Mar2012                                                                  
   LULTRA =        F    use ultrasoft PP ?                                                          
   IUNSCR =        1    unscreen: 0-lin 1-nonlin 2-no                                               
   RPACOR =    1.400    partial core radius                                                         
   POMASS =   30.974; ZVAL   =    5.000    mass and valenz                                          
   RCORE  =    2.000    outmost cutoff radius                                                       
   RWIGS  =    1.900; RWIGS  =    1.005    wigner-seitz radius (au A)                               
   ENMAX  =  255.040; ENMIN  =  191.280 eV                                                          
   ICORE  =        3    local potential                                                             
   LCOR   =        T    correct aug charges                                                         
   LPAW   =        T    paw PP                                                                      
   EAUG   =  499.732                                                                                
   DEXC   =    0.000                                                                                
   RMAX   =    2.047    core radius for proj-oper                                                   
   RAUG   =    1.300    factor for augmentation sphere                                              
   RDEP   =    2.059    radius for radial grids                                                     
   RDEPT  =    1.900    core radius for aug-charge                                                  
                                                                                                    
   Atomic configuration                                                                             
    7 entries                                                                                       
     n  l   j            E        occ.                                                              
     1  0  0.50     -2084.0982   2.0000                                                             
     2  0  0.50      -173.9859   2.0000                                                             
     2  1  1.50      -124.4865   6.0000                                                             
     3  0  0.50       -13.9692   2.0000                                                             
     3  1  0.50        -5.5067   3.0000                                                             
     3  2  1.50        -6.8029   0.0000                                                             
     4  3  2.50        -1.3606   0.0000                                                             
   Description                                                                                      
     l       E           TYP  RCUT    TYP  RCUT                                                     
     0    -13.9691528     23  1.900                                                                 
     0    102.0436950     23  1.900                                                                 
     1     -5.5066939     23  1.900                                                                 
     1    102.0436950     23  1.900                                                                 
     2     -8.1634956     23  2.000                                                                 
     2     81.6349560     23  2.000                                                                 
     3     27.2116520     23  2.000                                                                 
  local pseudopotential read in
  partial core-charges read in
  partial kinetic energy density read in
  kinetic energy density of atom read in
  atomic valenz-charges read in
  non local Contribution for L=           0  read in
    real space projection operators read in
  non local Contribution for L=           0  read in
    real space projection operators read in
  non local Contribution for L=           1  read in
    real space projection operators read in
  non local Contribution for L=           1  read in
    real space projection operators read in
  non local Contribution for L=           2  read in
    real space projection operators read in
  non local Contribution for L=           2  read in
    real space projection operators read in
    PAW grid and wavefunctions read in
 
   number of l-projection  operators is LMAX  =           6
   number of lm-projection operators is LMMAX =          18
 
 POTCAR:    PAW_PBE S_GW 19Mar2012                
   SHA256 =  357db9cfb0783579b2eebe03197c2d807131fea8ea663b1fcfb6ce2fa75af011 S_GW/POTCAR           
   COPYR  = (c) Copyright 19Mar2012 Georg Kresse                                                    
   COPYR  = This file is part of the software VASP. Any use, copying, and all other rights are regul
   COPYR  = If you do not have a valid VASP license, you may not use, copy or distribute this file. 
   VRHFIN =S : s2p4                                                                                 
   LEXCH  = PE                                                                                      
   EATOM  =   276.8230 eV,   20.3459 Ry                                                             
                                                                                                    
   TITEL  = PAW_PBE S_GW 19Mar2012                                                                  
   LULTRA =        F    use ultrasoft PP ?                                                          
   IUNSCR =        1    unscreen: 0-lin 1-nonlin 2-no                                               
   RPACOR =    1.400    partial core radius                                                         
   POMASS =   32.066; ZVAL   =    6.000    mass and valenz                                          
   RCORE  =    1.900    outmost cutoff radius                                                       
   RWIGS  =    1.900; RWIGS  =    1.005    wigner-seitz radius (au A)                               
   ENMAX  =  258.689; ENMIN  =  194.016 eV                                                          
   ICORE  =        3    local potential                                                             
   LCOR   =        T    correct aug charges                                                         
   LPAW   =        T    paw PP                                                                      
   EAUG   =  488.319                                                                                
   DEXC   =    0.000                                                                                
   RMAX   =    1.942    core radius for proj-oper                                                   
   RAUG   =    1.300    factor for augmentation sphere                                              
   RDEP   =    1.954    radius for radial grids                                                     
   RDEPT  =    1.900    core radius for aug-charge                                                  
                                                                                                    
   Atomic configuration                                                                             
    7 entries                                                                                       
     n  l   j            E        occ.                                                              
     1  0  0.50     -2405.8406   2.0000                                                             
     2  0  0.50      -211.7007   2.0000                                                             
     2  1  1.50      -156.4958   6.0000                                                             
     3  0  0.50       -17.2562   2.0000                                                             
     3  1  0.50        -7.0085   4.0000                                                             
     3  2  1.50        -8.1635   0.0000                                                             
     4  3  2.50        -1.3606   0.0000                                                             
   Description                                                                                      
     l       E           TYP  RCUT    TYP  RCUT                                                     
     0    -17.2561639     23  1.700                                                                 
     0     88.4378690     23  1.900                                                                 
     1     -7.0085399     23  1.900                                                                 
     1     88.4378690     23  1.900                                                                 
     2    -10.8846608     23  1.900                                                                 
     2     54.4233040     23  1.900                                                                 
     3     27.2116520     23  1.800                                                                 
  local pseudopotential read in
  partial core-charges read in
  partial kinetic energy density read in
  kinetic energy density of atom read in
  atomic valenz-charges read in
  non local Contribution for L=           0  read in
    real space projection operators read in
  non local Contribution for L=           0  read in
    real space projection operators read in
  non local Contribution for L=           1  read in
    real space projection operators read in
  non local Contribution for L=           1  read in
    real space projection operators read in
  non local Contribution for L=           2  read in
    real space projection operators read in
  non local Contribution for L=           2  read in
    real space projection operators read in
    PAW grid and wavefunctions read in
 
   number of l-projection  operators is LMAX  =           6
   number of lm-projection operators is LMMAX =          18
 
 POTCAR:    PAW_PBE Cl_GW 19Mar2012               
   SHA256 =  3ef3b3169d6a9a89979f58b4cf17d927a58518fc660d8883d88cacaee8175441 Cl_GW/POTCAR          
   COPYR  = (c) Copyright 19Mar2012 Georg Kresse                                                    
   COPYR  = This file is part of the software VASP. Any use, copying, and all other rights are regul
   COPYR  = If you do not have a valid VASP license, you may not use, copy or distribute this file. 
   VRHFIN =Cl: s2p5                                                                                 
   LEXCH  = PE                                                                                      
   EATOM  =   409.7259 eV,   30.1140 Ry                                                             
                                                                                                    
   TITEL  = PAW_PBE Cl_GW 19Mar2012                                                                 
   LULTRA =        F    use ultrasoft PP ?                                                          
   IUNSCR =        1    unscreen: 0-lin 1-nonlin 2-no                                               
   RPACOR =    1.400    partial core radius                                                         
   POMASS =   35.453; ZVAL   =    7.000    mass and valenz                                          
   RCORE  =    1.900    outmost cutoff radius                                                       
   RWIGS  =    1.900; RWIGS  =    1.005    wigner-seitz radius (au A)                               
   ENMAX  =  262.472; ENMIN  =  196.854 eV                                                          
   ICORE  =        3    local potential                                                             
   LCOR   =        T    correct aug charges                                                         
   LPAW   =        T    paw PP                                                                      
   EAUG   =  456.703                                                                                
   DEXC   =    0.000                                                                                
   RMAX   =    1.945    core radius for proj-oper                                                   
   RAUG   =    1.300    factor for augmentation sphere                                              
   RDEP   =    2.020    radius for radial grids                                                     
   RDEPT  =    1.900    core radius for aug-charge                                                  
                                                                                                    
   Atomic configuration                                                                             
    7 entries                                                                                       
     n  l   j            E        occ.                                                              
     1  0  0.50     -2751.1850   2.0000                                                             
     2  0  0.50      -252.6861   2.0000                                                             
     2  1  1.50      -191.6157   6.0000                                                             
     3  0  0.50       -20.6916   2.0000                                                             
     3  1  0.50        -8.5949   5.0000                                                             
     3  2  1.50        -9.5241   0.0000                                                             
     4  3  2.50        -9.5241   0.0000                                                             
   Description                                                                                      
     l       E           TYP  RCUT    TYP  RCUT                                                     
     0    -20.6915657     23  1.700                                                                 
     0     95.2407820     23  1.800                                                                 
     1     -8.5948577     23  1.900                                                                 
     1     95.2407820     23  1.900                                                                 
     2    -10.8846608     23  1.900                                                                 
     2     54.4233040     23  1.900                                                                 
     3     27.2116520     23  1.900                                                                 
  local pseudopotential read in
  partial core-charges read in
  partial kinetic energy density read in
  kinetic energy density of atom read in
  atomic valenz-charges read in
  non local Contribution for L=           0  read in
    real space projection operators read in
  non local Contribution for L=           0  read in
    real space projection operators read in
  non local Contribution for L=           1  read in
    real space projection operators read in
  non local Contribution for L=           1  read in
    real space projection operators read in
  non local Contribution for L=           2  read in
    real space projection operators read in
  non local Contribution for L=           2  read in
    real space projection operators read in
    PAW grid and wavefunctions read in
 
   number of l-projection  operators is LMAX  =           6
   number of lm-projection operators is LMMAX =          18
 
 Optimization of the real space projectors (new method)

 maximal supplied QI-value         = 25.13
 optimisation between [QCUT,QGAM] = [ 11.56, 23.12] = [ 37.43,149.72] Ry 
 Optimized for a Real-space Cutoff    1.28 Angstroem

   l    n(q)    QCUT    max X(q) W(low)/X(q) W(high)/X(q)  e(spline) 
   0      9    11.561    87.733    0.11E-03    0.32E-04    0.56E-06
   0      9    11.561    82.800    0.11E-03    0.35E-04    0.56E-06
   0      9    11.561     2.509    0.22E-03    0.42E-04    0.79E-06
   1      8    11.561    12.580    0.94E-04    0.26E-03    0.21E-06
   1      8    11.561     1.319    0.33E-04    0.15E-03    0.19E-06
   2      8    11.561     1.993    0.36E-04    0.89E-04    0.26E-06
 Optimization of the real space projectors (new method)

 maximal supplied QI-value         = 18.90
 optimisation between [QCUT,QGAM] = [ 11.53, 23.24] = [ 37.21,151.29] Ry 
 Optimized for a Real-space Cutoff    1.21 Angstroem

   l    n(q)    QCUT    max X(q) W(low)/X(q) W(high)/X(q)  e(spline) 
   0      8    11.527     8.355    0.73E-04    0.70E-04    0.26E-07
   0      8    11.527     1.401    0.17E-03    0.17E-03    0.63E-07
   1      8    11.527     4.747    0.13E-03    0.17E-03    0.11E-06
   1      8    11.527     2.025    0.16E-03    0.18E-03    0.12E-06
   2      7    11.527     3.169    0.51E-04    0.25E-03    0.60E-07
   2      7    11.527     3.441    0.82E-04    0.22E-03    0.14E-06
 Optimization of the real space projectors (new method)

 maximal supplied QI-value         = 19.84
 optimisation between [QCUT,QGAM] = [ 11.51, 23.22] = [ 37.09,150.92] Ry 
 Optimized for a Real-space Cutoff    1.49 Angstroem

   l    n(q)    QCUT    max X(q) W(low)/X(q) W(high)/X(q)  e(spline) 
   0     10    11.508     7.541    0.34E-04    0.13E-04    0.69E-07
   0     10    11.508     1.809    0.49E-04    0.27E-04    0.14E-06
   1     10    11.508     4.107    0.27E-05    0.41E-05    0.14E-06
   1     10    11.508     2.196    0.26E-05    0.25E-05    0.22E-06
   2      9    11.508     4.265    0.18E-03    0.11E-03    0.81E-06
   2      9    11.508     1.925    0.97E-04    0.76E-04    0.47E-06
 Optimization of the real space projectors (new method)

 maximal supplied QI-value         = 19.84
 optimisation between [QCUT,QGAM] = [ 11.51, 23.22] = [ 37.09,150.92] Ry 
 Optimized for a Real-space Cutoff    1.21 Angstroem

   l    n(q)    QCUT    max X(q) W(low)/X(q) W(high)/X(q)  e(spline) 
   0      8    11.508     6.761    0.57E-04    0.57E-04    0.35E-07
   0      8    11.508     1.642    0.14E-03    0.14E-03    0.91E-07
   1      8    11.508     3.519    0.20E-04    0.72E-04    0.47E-07
   1      8    11.508     2.150    0.27E-04    0.11E-03    0.89E-07
   2      7    11.508     2.976    0.19E-03    0.33E-03    0.16E-06
   2      7    11.508     1.494    0.14E-03    0.29E-03    0.14E-06
  PAW_PBE Li_sv_GW 25Mar2010            :
 energy of atom  1       EATOM= -200.9989
 kinetic energy error for atom=    0.0127 (will be added to EATOM!!)
  PAW_PBE P_GW 19Mar2012                :
 energy of atom  2       EATOM= -176.0430
 kinetic energy error for atom=    0.0011 (will be added to EATOM!!)
  PAW_PBE S_GW 19Mar2012                :
 energy of atom  3       EATOM= -276.8230
 kinetic energy error for atom=    0.0024 (will be added to EATOM!!)
  PAW_PBE Cl_GW 19Mar2012               :
 energy of atom  4       EATOM= -409.7259
 kinetic energy error for atom=    0.0030 (will be added to EATOM!!)
 
 
 POSCAR: Li24 P4 S20 Cl4
  positions in direct lattice
  velocities in cartesian coordinates
 exchange correlation table for  LEXCH =        8
   RHO(1)=    0.500       N(1)  =     2000
   RHO(2)=  100.500       N(2)  =     4000

 VTST: version 4.1, (05/19/21)

 CHAIN: initializing optimizer
 
 OPT: Using VASP Conjugate-Gradient optimizer
 CHAIN: Read ICHAIN            0
 
 POSCAR: Li24 P4 S20 Cl4
  positions in direct lattice
  velocities in cartesian coordinates
 


--------------------------------------------------------------------------------------------------------


 ion  position               nearest neighbor table
   1  0.980  0.266  0.234-  46 2.22
   2  0.984  0.766  0.734-
   3  0.011  0.178  0.811-
   4  0.011  0.689  0.322-
   5  0.216  0.187  0.995-
   6  0.172  0.813  0.038-
   7  0.699  0.286  0.023-
   8  0.818  0.842  0.962-
   9  0.270  0.966  0.284-
  10  0.334  0.019  0.726-
  11  0.680  0.983  0.700-
  12  0.821  0.026  0.195-
  13  0.334  0.774  0.481-
  14  0.270  0.216  0.534-
  15  0.680  0.800  0.517-
  16  0.821  0.305  0.474-
  17  0.172  0.462  0.687-
  18  0.216  0.505  0.313-
  19  0.699  0.477  0.214-
  20  0.818  0.538  0.657-
  21  0.456  0.339  0.818-
  22  0.456  0.682  0.161-
  23  0.548  0.159  0.340-
  24  0.686  0.594  0.906-
  25  0.500  0.488  0.510-  43 2.03  42 2.06  44 2.06  41 2.06
  26  0.500  0.990  0.012-  40 2.03  38 2.06  39 2.06  37 2.06
  27  0.003  0.508  0.992-  35 2.04  36 2.05  34 2.06  33 2.06
  28  0.001  1.000  0.500-  31 2.05  32 2.05  29 2.05  30 2.06
  29  0.141  0.888  0.612-  28 2.05
  30  0.115  0.127  0.373-  28 2.06
  31  0.874  0.877  0.383-  28 2.05
  32  0.874  0.117  0.623-  28 2.05
  33  0.876  0.630  0.111-  27 2.06
  34  0.876  0.389  0.870-  27 2.06
  35  0.125  0.629  0.871-  27 2.04
  36  0.134  0.390  0.110-  27 2.05
  37  0.602  0.120  0.878-  26 2.06
  38  0.634  0.873  0.128-  26 2.06
  39  0.393  0.117  0.144-  26 2.06
  40  0.379  0.857  0.904-  26 2.03
  41  0.602  0.622  0.380-  25 2.06
  42  0.634  0.372  0.627-  25 2.06
  43  0.379  0.596  0.643-  25 2.03
  44  0.393  0.356  0.383-  25 2.06
  45  0.752  0.756  0.744-
  46  0.752  0.248  0.252-   1 2.22
  47  0.241  0.736  0.259-
  48  0.241  0.240  0.764-
  49  0.002  0.009  0.007-
  50  0.002  0.493  0.491-
  51  0.492  0.982  0.518-
  52  0.525  0.475  0.025-
 
  LATTYP: Found a simple cubic cell.
 ALAT       =     9.6996181754
  
  Lattice vectors:
  
 A1 = (   9.6996181754,   0.0000000000,   0.0000000000)
 A2 = (   0.0000000000,   9.6996181754,   0.0000000000)
 A3 = (   0.0000000000,   0.0000000000,   9.6996181754)


Analysis of symmetry for initial positions (statically):
=====================================================================
 Subroutine PRICEL returns:
 Original cell was already a primitive cell.
 

 Routine SETGRP: Setting up the symmetry group for a 
 simple cubic supercell.


 Subroutine GETGRP returns: Found  2 space group operations
 (whereof  1 operations were pure point group operations)
 out of a pool of 48 trial point group operations.


The static configuration has the point symmetry C_1 .
 The point group associated with its full space group is C_1h.


Analysis of symmetry for dynamics (positions and initial velocities):
=====================================================================
 Subroutine PRICEL returns:
 Original cell was already a primitive cell.
 

 Routine SETGRP: Setting up the symmetry group for a 
 simple cubic supercell.


 Subroutine GETGRP returns: Found  2 space group operations
 (whereof  1 operations were pure point group operations)
 out of a pool of 48 trial point group operations.


The dynamic configuration has the point symmetry C_1 .
 The point group associated with its full space group is C_1h.


Analysis of structural, dynamic, and magnetic symmetry:
=====================================================================
 Subroutine PRICEL returns:
 Original cell was already a primitive cell.
 

 Routine SETGRP: Setting up the symmetry group for a 
 simple cubic supercell.


 Subroutine GETGRP returns: Found  2 space group operations
 (whereof  1 operations were pure point group operations)
 out of a pool of 48 trial point group operations.


The overall configuration has the point symmetry C_1 .
 The point group associated with its full space group is C_1h.


 Subroutine INISYM returns: Found  2 space group operations
 (whereof  1 operations are pure point group operations),
 and found     1 'primitive' translations


----------------------------------------------------------------------------------------

                                     Primitive cell                                     

  volume of cell :     912.5652

  direct lattice vectors                    reciprocal lattice vectors
     9.699618175  0.000000000  0.000000000     0.103096842  0.000000000  0.000000000
     0.000000000  9.699618175  0.000000000     0.000000000  0.103096842  0.000000000
     0.000000000  0.000000000  9.699618175     0.000000000  0.000000000  0.103096842

  length of vectors
     9.699618175  9.699618175  9.699618175     0.103096842  0.103096842  0.103096842

  position of ions in fractional coordinates (direct lattice)
     0.979516059  0.265971628  0.233893966
     0.983973455  0.765919189  0.733946405
     0.011052723  0.178006961  0.810533579
     0.011052723  0.689332015  0.321858633
     0.216141211  0.186834669  0.994610126
     0.171885712  0.812522849  0.038308882
     0.698616020  0.286226442  0.022559037
     0.818332151  0.842433172  0.961669714
     0.270415875  0.965592987  0.284152701
     0.333852304  0.019177681  0.726121241
     0.679710510  0.982875416  0.700133691
     0.820704229  0.025777959  0.194661556
     0.333852304  0.773744353  0.480687913
     0.270415875  0.215712893  0.534272607
     0.679710510  0.799731903  0.516990178
     0.820704229  0.305204038  0.474087635
     0.171885712  0.461556712  0.687342745
     0.216141211  0.505255468  0.313030925
     0.698616020  0.477306557  0.213639152
     0.818332151  0.538195880  0.657432422
     0.456020784  0.339199985  0.818092157
     0.456020784  0.681773437  0.160665609
     0.548010356  0.159385788  0.340479806
     0.686382121  0.594286698  0.905578896
     0.499963549  0.487885185  0.510272797
     0.499963549  0.989592797  0.011980409
     0.002718636  0.507560064  0.992305530
     0.000814959  0.999861942  0.500003652
     0.141462113  0.888218684  0.611646910
     0.114552381  0.126656725  0.373208868
     0.874430568  0.877249725  0.383242916
     0.874430568  0.116622678  0.622615869
     0.875648909  0.630330743  0.110850607
     0.875648909  0.389014987  0.869534851
     0.124960912  0.628565574  0.871300019
     0.133590422  0.389864184  0.110001410
     0.602303133  0.119758066  0.878166935
     0.634073923  0.872891034  0.127725260
     0.392588711  0.116557943  0.143969940
     0.379482008  0.857089496  0.904045761
     0.602303133  0.621698659  0.380107528
     0.634073923  0.372140334  0.626974560
     0.379482008  0.595819833  0.642776098
     0.392588711  0.355895654  0.383307651
     0.752381449  0.755949972  0.743915622
     0.752328525  0.248239078  0.251626516
     0.240716753  0.735664444  0.259389236
     0.240716753  0.240476358  0.764201150
     0.001800023  0.008587290  0.006680273
     0.001800023  0.493185321  0.491278304
     0.491532160  0.982028082  0.517837512
     0.525190319  0.474790104  0.025075490

  ion indices of the primitive-cell ions
   primitive index   ion index
                 1           1
                 2           2
                 3           3
                 4           4
                 5           5
                 6           6
                 7           7
                 8           8
                 9           9
                10          10
                11          11
                12          12
                13          13
                14          14
                15          15
                16          16
                17          17
                18          18
                19          19
                20          20
                21          21
                22          22
                23          23
                24          24
                25          25
                26          26
                27          27
                28          28
                29          29
                30          30
                31          31
                32          32
                33          33
                34          34
                35          35
                36          36
                37          37
                38          38
                39          39
                40          40
                41          41
                42          42
                43          43
                44          44
                45          45
                46          46
                47          47
                48          48
                49          49
                50          50
                51          51
                52          52

----------------------------------------------------------------------------------------

 
 
 KPOINTS: Automatic mesh                          

Automatic generation of k-mesh.
 Grid dimensions read from file:
 generate k-points for:    2    2    2

 Generating k-lattice:

  Cartesian coordinates                     Fractional coordinates (reciprocal lattice)
     0.051548421  0.000000000  0.000000000     0.500000000  0.000000000  0.000000000
     0.000000000  0.051548421  0.000000000     0.000000000  0.500000000  0.000000000
     0.000000000  0.000000000  0.051548421     0.000000000  0.000000000  0.500000000

  Length of vectors
     0.051548421  0.051548421  0.051548421

  Shift w.r.t. Gamma in fractional coordinates (k-lattice)
     0.500000000  0.500000000  0.500000000

 
 Subroutine IBZKPT returns following result:
 ===========================================
 
 Found      3 irreducible k-points:
 
 Following reciprocal coordinates:
            Coordinates               Weight
  0.250000  0.250000  0.250000      4.000000
 -0.250000 -0.250000  0.250000      2.000000
  0.250000 -0.250000  0.250000      2.000000
 
 Following cartesian coordinates:
            Coordinates               Weight
  0.025774  0.025774  0.025774      4.000000
 -0.025774 -0.025774  0.025774      2.000000
  0.025774 -0.025774  0.025774      2.000000
 


--------------------------------------------------------------------------------------------------------




 Dimension of arrays:
   k-points           NKPTS =      3   k-points in BZ     NKDIM =      3   number of bands    NBANDS=    176
   number of dos      NEDOS =    301   number of ions     NIONS =     52
   non local maximal  LDIM  =      6   non local SUM 2l+1 LMDIM =     18
   total plane-waves  NPLWV = 373248
   max r-space proj   IRMAX =   5707   max aug-charges    IRDMAX=  17460
   dimension x,y,z NGX =    72 NGY =   72 NGZ =   72
   dimension x,y,z NGXF=   144 NGYF=  144 NGZF=  144
   support grid    NGXF=   144 NGYF=  144 NGZF=  144
   ions per type =              24   4  20   4
   NGX,Y,Z   is equivalent  to a cutoff of  12.34, 12.34, 12.34 a.u.
   NGXF,Y,Z  is equivalent  to a cutoff of  24.68, 24.68, 24.68 a.u.

 SYSTEM =  unknown system                          
 POSCAR =  Li24 P4 S20 Cl4                         

 Startparameter for this run:
   NWRITE =      2    write-flag & timer
   PREC   = accu      normal or accurate (medium, high low for compatibility)
   ISTART =      0    job   : 0-new  1-cont  2-samecut
   ICHARG =      2    charge: 1-file 2-atom 10-const
   ISPIN  =      2    spin polarized calculation?
   LNONCOLLINEAR =      F non collinear calculations
   LSORBIT =      F    spin-orbit coupling
   INIWAV =      1    electr: 0-lowe 1-rand  2-diag
   LASPH  =      T    aspherical Exc in radial PAW
 Electronic Relaxation 1
   ENCUT  =  520.0 eV  38.22 Ry    6.18 a.u.  18.03 18.03 18.03*2*pi/ulx,y,z
   ENINI  =  520.0     initial cutoff
   ENAUG  = 1041.7 eV  augmentation charge cutoff
   NELM   =    100;   NELMIN=  2; NELMDL=-10     # of ELM steps 
   EDIFF  = 0.1E-05   stopping-criterion for ELM
   LREAL  =      T    real-space projection
   NLSPLINE    = F    spline interpolate recip. space projectors
   LCOMPAT=      F    compatible to vasp.4.4
   GGA_COMPAT  = T    GGA compatible to vasp.4.4-vasp.4.6
   LMAXPAW     = -100 max onsite density
   LMAXMIX     =    4 max onsite mixed and CHGCAR
   VOSKOWN=      0    Vosko Wilk Nusair interpolation
   ROPT   =   -0.00025  -0.00025  -0.00025  -0.00025
 Ionic relaxation
   EDIFFG = -.1E-02   stopping-criterion for IOM
   NSW    =   1000    number of steps for IOM
   NBLOCK =      1;   KBLOCK =   1000    inner block; outer block 
   IBRION =      2    ionic relax: 0-MD 1-quasi-New 2-CG
   NFREE  =      1    steps in history (QN), initial steepest desc. (CG)
   ISIF   =      2    stress and relaxation
   IWAVPR =     11    prediction:  0-non 1-charg 2-wave 3-comb
   ISYM   =      2    0-nonsym 1-usesym 2-fastsym
   LCORR  =      T    Harris-Foulkes like correction to forces

   POTIM  = 0.2000    time-step for ionic-motion
   TEIN   =    0.0    initial temperature
   TEBEG  =    0.0;   TEEND  =   0.0 temperature during run
   SMASS  =  -3.00    Nose mass-parameter (am)
   estimated Nose-frequenzy (Omega)   =  0.10E-29 period in steps = 0.31E+47 mass=  -0.215E-26a.u.
   SCALEE = 1.0000    scale energy and forces
   NPACO  =    256;   APACO  = 10.0  distance and # of slots for P.C.
   PSTRESS=    0.0 pullay stress

  Mass of Ions in am
   POMASS =   7.01 30.97 32.07 35.45
  Ionic Valenz
   ZVAL   =   3.00  5.00  6.00  7.00
  Atomic Wigner-Seitz radii
   RWIGS  =  -1.00 -1.00 -1.00 -1.00
  virtual crystal weights 
   VCA    =   1.00  1.00  1.00  1.00
   NELECT =     240.0000    total number of electrons
   NUPDOWN=      -1.0000    fix difference up-down

 DOS related values:
   EMIN   =  10.00;   EMAX   =-10.00  energy-range for DOS
   EFERMI =   0.00;   METHOD = LEGACY      
   ISMEAR =     0;   SIGMA  =   0.03  broadening in eV -4-tet -1-fermi 0-gaus

 Electronic relaxation 2 (details)
   IALGO  =     68    algorithm
   LDIAG  =      T    sub-space diagonalisation (order eigenvalues)
   LSUBROT=      F    optimize rotation matrix (better conditioning)
   TURBO    =      0    0=normal 1=particle mesh
   IRESTART =      0    0=no restart 2=restart with 2 vectors
   NREBOOT  =      0    no. of reboots
   NMIN     =      0    reboot dimension
   EREF     =   0.00    reference energy to select bands
   IMIX   =      4    mixing-type and parameters
     AMIX     =   0.40;   BMIX     =  1.00
     AMIX_MAG =   1.60;   BMIX_MAG =  1.00
     AMIN     =   0.10
     WC   =   100.;   INIMIX=   1;  MIXPRE=   1;  MAXMIX= -45

 Intra band minimization:
   WEIMIN = 0.0010     energy-eigenvalue tresh-hold
   EBREAK =  0.14E-08  absolut break condition
   DEPER  =   0.30     relativ break condition  

   TIME   =   0.40     timestep for ELM

  volume/ion in A,a.u.               =      17.55       118.43
  Fermi-wavevector in a.u.,A,eV,Ry     =   1.048875  1.982087 14.968311  1.100140
  Thomas-Fermi vector in A             =   2.183815
 
 Write flags
   LWAVE        =      F    write WAVECAR
   LDOWNSAMPLE  =      F    k-point downsampling of WAVECAR
   LCHARG       =      F    write CHGCAR
   LVTOT        =      F    write LOCPOT, total local potential
   LVHAR        =      F    write LOCPOT, Hartree potential only
   LELF         =      F    write electronic localiz. function (ELF)
   LORBIT       =      0    0 simple, 1 ext, 2 COOP (PROOUT), +10 PAW based schemes


 Dipole corrections
   LMONO  =      F    monopole corrections only (constant potential shift)
   LDIPOL =      F    correct potential (dipole corrections)
   IDIPOL =      0    1-x, 2-y, 3-z, 4-all directions 
   EPSILON=  1.0000000 bulk dielectric constant

 Exchange correlation treatment:
   GGA     =    PE    GGA type
   LEXCH   =     8    internal setting for exchange type
   LIBXC   =     F    Libxc                    
   VOSKOWN =     0    Vosko Wilk Nusair interpolation
   LHFCALC =     F    Hartree Fock is set to
   LHFONE  =     F    Hartree Fock one center treatment
   AEXX    =    0.0000 exact exchange contribution

 Linear response parameters
   LEPSILON=     F    determine dielectric tensor
   LRPA    =     F    only Hartree local field effects (RPA)
   LNABLA  =     F    use nabla operator in PAW spheres
   LVEL    =     F    velocity operator in full k-point grid
   CSHIFT  =0.1000    complex shift for real part using Kramers Kronig
   OMEGAMAX=  -1.0    maximum frequency
   DEG_THRESHOLD= 0.2000000E-02 threshold for treating states as degnerate
   RTIME   =   -0.100 relaxation time in fs
  (WPLASMAI=    0.000 imaginary part of plasma frequency in eV, 0.658/RTIME)
   DFIELD  = 0.0000000 0.0000000 0.0000000 field for delta impulse in time
 
  Optional k-point grid parameters
   LKPOINTS_OPT  =     F    use optional k-point grid
   KPOINTS_OPT_MODE=     1    mode for optional k-point grid
 
 Orbital magnetization related:
   ORBITALMAG=     F  switch on orbital magnetization
   LCHIMAG   =     F  perturbation theory with respect to B field
   DQ        =  0.001000  dq finite difference perturbation B field
   LLRAUG    =     F  two centre corrections for induced B field
   LBONE     =     F  B-component reconstruction in AE one-centre
   LVGVCALC  =     T  calculate vGv susceptibility
   LVGVAPPL  =     F  apply vGv susceptibility instead of pGv for G=0

 Random number generation:
   RANDOM_GENERATOR = DEFAULT
   PCG_SEED         = not used


--------------------------------------------------------------------------------------------------------


 conjugate gradient relaxation of ions
 charge density and potential will be updated during run
 spin polarized calculation
 RMM-DIIS sequential band-by-band and
  variant of blocked Davidson during initial phase
 perform sub-space diagonalisation
    before iterative eigenvector-optimisation
 modified Broyden-mixing scheme, WC =      100.0
 initial mixing is a Kerker type mixing with AMIX =  0.4000 and BMIX =      1.0000
 Hartree-type preconditioning will be used
 using additional bands           56
 real space projection scheme for non local part
 use partial core corrections
 calculate Harris-corrections to forces 
   (improved forces if not selfconsistent)
 use gradient corrections 
 use of overlap-Matrix (Vanderbilt PP)
 Gauss-broadening in eV      SIGMA  =   0.03


--------------------------------------------------------------------------------------------------------


  energy-cutoff  :      520.00
  volume of cell :      912.57
      direct lattice vectors                 reciprocal lattice vectors
     9.699618175  0.000000000  0.000000000     0.103096842  0.000000000  0.000000000
     0.000000000  9.699618175  0.000000000     0.000000000  0.103096842  0.000000000
     0.000000000  0.000000000  9.699618175     0.000000000  0.000000000  0.103096842

  length of vectors
     9.699618175  9.699618175  9.699618175     0.103096842  0.103096842  0.103096842


 
 k-points in units of 2pi/SCALE and weight: Automatic mesh                          
   0.02577421  0.02577421  0.02577421       0.500
  -0.02577421 -0.02577421  0.02577421       0.250
   0.02577421 -0.02577421  0.02577421       0.250
 
 k-points in reciprocal lattice and weights: Automatic mesh                          
   0.25000000  0.25000000  0.25000000       0.500
  -0.25000000 -0.25000000  0.25000000       0.250
   0.25000000 -0.25000000  0.25000000       0.250
 
 position of ions in fractional coordinates (direct lattice) 
   0.97951606  0.26597163  0.23389397
   0.98397345  0.76591919  0.73394641
   0.01105272  0.17800696  0.81053358
   0.01105272  0.68933202  0.32185863
   0.21614121  0.18683467  0.99461013
   0.17188571  0.81252285  0.03830888
   0.69861602  0.28622644  0.02255904
   0.81833215  0.84243317  0.96166971
   0.27041587  0.96559299  0.28415270
   0.33385230  0.01917768  0.72612124
   0.67971051  0.98287542  0.70013369
   0.82070423  0.02577796  0.19466156
   0.33385230  0.77374435  0.48068791
   0.27041587  0.21571289  0.53427261
   0.67971051  0.79973190  0.51699018
   0.82070423  0.30520404  0.47408764
   0.17188571  0.46155671  0.68734274
   0.21614121  0.50525547  0.31303093
   0.69861602  0.47730656  0.21363915
   0.81833215  0.53819588  0.65743242
   0.45602078  0.33919999  0.81809216
   0.45602078  0.68177344  0.16066561
   0.54801036  0.15938579  0.34047981
   0.68638212  0.59428670  0.90557890
   0.49996355  0.48788518  0.51027280
   0.49996355  0.98959280  0.01198041
   0.00271864  0.50756006  0.99230553
   0.00081496  0.99986194  0.50000365
   0.14146211  0.88821868  0.61164691
   0.11455238  0.12665673  0.37320887
   0.87443057  0.87724972  0.38324292
   0.87443057  0.11662268  0.62261587
   0.87564891  0.63033074  0.11085061
   0.87564891  0.38901499  0.86953485
   0.12496091  0.62856557  0.87130002
   0.13359042  0.38986418  0.11000141
   0.60230313  0.11975807  0.87816694
   0.63407392  0.87289103  0.12772526
   0.39258871  0.11655794  0.14396994
   0.37948201  0.85708950  0.90404576
   0.60230313  0.62169866  0.38010753
   0.63407392  0.37214033  0.62697456
   0.37948201  0.59581983  0.64277610
   0.39258871  0.35589565  0.38330765
   0.75238145  0.75594997  0.74391562
   0.75232852  0.24823908  0.25162652
   0.24071675  0.73566444  0.25938924
   0.24071675  0.24047636  0.76420115
   0.00180002  0.00858729  0.00668027
   0.00180002  0.49318532  0.49127830
   0.49153216  0.98202808  0.51783751
   0.52519032  0.47479010  0.02507549
 
 position of ions in cartesian coordinates  (Angst):
   9.50093177  2.57982324  2.26868216
   9.54416681  7.42912368  7.11899989
   0.10720720  1.72659955  7.86186623
   0.10720720  6.68625734  3.12190585
   2.09648722  1.81222495  9.64733845
   1.66722577  7.88116140  0.37158152
   6.77630865  2.77628720  0.21881405
   7.93750941  8.17128011  9.32782904
   2.62293073  9.36588328  2.75617270
   3.23823988  0.18601618  7.04309878
   6.59293242  9.53351625  6.79102947
   7.96051766  0.25003636  1.88814276
   3.23823988  7.50502479  4.66248922
   2.62293073  2.09233270  5.18224029
   6.59293242  7.75709410  5.01460733
   7.96051766  2.96036264  4.59846904
   1.66722577  4.47692388  6.66696218
   2.09648722  4.90078512  3.03628045
   6.77630865  4.62969135  2.07221820
   7.93750941  5.22029454  6.37684347
   4.42322748  3.29011034  7.93518155
   4.42322748  6.61294202  1.55839506
   5.31549121  1.54598129  3.30252411
   6.65764450  5.76435405  8.78376952
   4.84945552  4.73230001  4.94945130
   4.84945552  9.59867228  0.11620539
   0.02636974  4.92313882  9.62498475
   0.00790479  9.69827907  4.84984451
   1.37212848  8.61538209  5.93274148
   1.11111436  1.22852188  3.61998352
   8.48164263  8.50898738  3.71730995
   8.48164263  1.13119545  6.03913620
   8.49346007  6.11396753  1.07520856
   8.49346007  3.77329684  8.43415605
   1.21207313  6.09684607  8.45127751
   1.29577609  3.78153372  1.06697168
   5.84211042  1.16160751  8.51788397
   6.15027495  8.46670973  1.23888625
   3.80796060  1.13056754  1.39645345
   3.68083058  8.31344086  8.76889870
   5.84211042  6.03023961  3.68689789
   6.15027495  3.60961915  6.08141384
   3.68083058  5.77922488  6.23468272
   3.80796060  3.45205195  3.71793786
   7.29781277  7.33242608  7.21569749
   7.29729943  2.40782427  2.44068113
   2.33486059  7.13566421  2.51597655
   2.33486059  2.33252885  7.41245937
   0.01745953  0.08329343  0.06479610
   0.01745953  4.78370930  4.76521197
   4.76767427  9.52529743  5.02282614
   5.09414556  4.60528272  0.24322268
 


--------------------------------------------------------------------------------------------------------


 k-point   1 :   0.2500 0.2500 0.2500  plane waves:   24549
 k-point   2 :  -0.2500-0.2500 0.2500  plane waves:   24549
 k-point   3 :   0.2500-0.2500 0.2500  plane waves:   24549

 maximum and minimum number of plane-waves per node :       782      753

 maximum number of plane-waves:     24549
 maximum index in each direction: 
   IXMAX=   18   IYMAX=   18   IZMAX=   17
   IXMIN=  -18   IYMIN=  -18   IZMIN=  -18


 real space projection operators:
  total allocation   :      28005.20 KBytes
  max/ min on nodes  :       1167.20        714.70


 parallel 3D FFT for wavefunctions:
    minimum data exchange during FFTs selected (reduces bandwidth)
 parallel 3D FFT for charge:
    minimum data exchange during FFTs selected (reduces bandwidth)


 total amount of memory used by VASP MPI-rank0    46941. kBytes
=======================================================================

   base      :      30000. kBytes
   nonlr-proj:       6442. kBytes
   fftplans  :       1747. kBytes
   grid      :       5278. kBytes
   one-center:         62. kBytes
   wavefun   :       3412. kBytes
 
     INWAV:  cpu time      0.0000: real time      0.0000
 Broyden mixing: mesh for mixing (old mesh)
   NGX = 37   NGY = 37   NGZ = 37
  (NGX  =144   NGY  =144   NGZ  =144)
  gives a total of  50653 points

 initial charge density was supplied:
 charge density of overlapping atoms calculated
 number of electron     240.0000000 magnetization      52.0000000
 keeping initial charge density in first step


--------------------------------------------------------------------------------------------------------


 Maximum index for non-local projection operator          497
 Maximum index for augmentation-charges          788 (set IRDMAX)


--------------------------------------------------------------------------------------------------------


 First call to EWALD:  gamma=   0.183
 Maximum number of real-space cells 3x 3x 3
 Maximum number of reciprocal cells 3x 3x 3

    FEWALD:  cpu time      0.0029: real time      0.0034


--------------------------------------- Ionic step        1  -------------------------------------------




--------------------------------------- Iteration      1(   1)  ---------------------------------------


    POTLOK:  cpu time      0.0573: real time      0.0846
    SETDIJ:  cpu time      0.4119: real time      0.4193
     EDDAV:  cpu time      1.6660: real time      1.7116
       DOS:  cpu time      0.0027: real time      0.0038
    --------------------------------------------
      LOOP:  cpu time      2.1380: real time      2.2192

 eigenvalue-minimisations  :  2328
 total energy-change (2. order) : 0.1586811E+04  (-0.1137715E+05)
 number of electron     240.0000000 magnetization      52.0000000
 augmentation part      240.0000000 magnetization      52.0000000

 Free energy of the ion-electron system (eV)
  ---------------------------------------------------
  alpha Z        PSCENC =       297.46641200
  Ewald energy   TEWEN  =     -8761.55955051
  -Hartree energ DENC   =     -2137.30695689
  -exchange      EXHF   =         0.00000000
  -V(xc)+E(xc)   XCENC  =       533.67156363
  PAW double counting   =      8141.38806575    -8271.61346273
  entropy T*S    EENTRO =        -0.01063904
  eigenvalues    EBANDS =      -918.36439543
  atomic energy  EATOM  =     12703.13999606
  Solvation  Ediel_sol  =         0.00000000
  ---------------------------------------------------
  free energy    TOTEN  =      1586.81103285 eV

  energy without entropy =     1586.82167189  energy(sigma->0) =     1586.81635237


--------------------------------------------------------------------------------------------------------




--------------------------------------- Iteration      1(   2)  ---------------------------------------


     EDDAV:  cpu time      1.9598: real time      1.9773
       DOS:  cpu time      0.0005: real time      0.0005
    --------------------------------------------
      LOOP:  cpu time      1.9603: real time      1.9778

 eigenvalue-minimisations  :  2888
 total energy-change (2. order) :-0.1643643E+04  (-0.1546470E+04)
 number of electron     240.0000000 magnetization      52.0000000
 augmentation part      240.0000000 magnetization      52.0000000

 Free energy of the ion-electron system (eV)
  ---------------------------------------------------
  alpha Z        PSCENC =       297.46641200
  Ewald energy   TEWEN  =     -8761.55955051
  -Hartree energ DENC   =     -2137.30695689
  -exchange      EXHF   =         0.00000000
  -V(xc)+E(xc)   XCENC  =       533.67156363
  PAW double counting   =      8141.38806575    -8271.61346273
  entropy T*S    EENTRO =        -0.00000000
  eigenvalues    EBANDS =     -2562.01837766
  atomic energy  EATOM  =     12703.13999606
  Solvation  Ediel_sol  =         0.00000000
  ---------------------------------------------------
  free energy    TOTEN  =       -56.83231034 eV

  energy without entropy =      -56.83231034  energy(sigma->0) =      -56.83231034


--------------------------------------------------------------------------------------------------------




--------------------------------------- Iteration      1(   3)  ---------------------------------------


     EDDAV:  cpu time      1.9682: real time      1.9838
       DOS:  cpu time      0.0004: real time      0.0004
    --------------------------------------------
      LOOP:  cpu time      1.9686: real time      1.9842

 eigenvalue-minimisations  :  2880
 total energy-change (2. order) :-0.1720874E+03  (-0.1701519E+03)
 number of electron     240.0000000 magnetization      52.0000000
 augmentation part      240.0000000 magnetization      52.0000000

 Free energy of the ion-electron system (eV)
  ---------------------------------------------------
  alpha Z        PSCENC =       297.46641200
  Ewald energy   TEWEN  =     -8761.55955051
  -Hartree energ DENC   =     -2137.30695689
  -exchange      EXHF   =         0.00000000
  -V(xc)+E(xc)   XCENC  =       533.67156363
  PAW double counting   =      8141.38806575    -8271.61346273
  entropy T*S    EENTRO =        -0.00000000
  eigenvalues    EBANDS =     -2734.10576554
  atomic energy  EATOM  =     12703.13999606
  Solvation  Ediel_sol  =         0.00000000
  ---------------------------------------------------
  free energy    TOTEN  =      -228.91969822 eV

  energy without entropy =     -228.91969822  energy(sigma->0) =     -228.91969822


--------------------------------------------------------------------------------------------------------




--------------------------------------- Iteration      1(   4)  ---------------------------------------


     EDDAV:  cpu time      2.4100: real time      2.4278
       DOS:  cpu time      0.0004: real time      0.0004
    --------------------------------------------
      LOOP:  cpu time      2.4105: real time      2.4282

 eigenvalue-minimisations  :  3536
 total energy-change (2. order) :-0.1252843E+02  (-0.1250609E+02)
 number of electron     240.0000000 magnetization      52.0000000
 augmentation part      240.0000000 magnetization      52.0000000

 Free energy of the ion-electron system (eV)
  ---------------------------------------------------
  alpha Z        PSCENC =       297.46641200
  Ewald energy   TEWEN  =     -8761.55955051
  -Hartree energ DENC   =     -2137.30695689
  -exchange      EXHF   =         0.00000000
  -V(xc)+E(xc)   XCENC  =       533.67156363
  PAW double counting   =      8141.38806575    -8271.61346273
  entropy T*S    EENTRO =        -0.00000000
  eigenvalues    EBANDS =     -2746.63419584
  atomic energy  EATOM  =     12703.13999606
  Solvation  Ediel_sol  =         0.00000000
  ---------------------------------------------------
  free energy    TOTEN  =      -241.44812852 eV

  energy without entropy =     -241.44812852  energy(sigma->0) =     -241.44812852


--------------------------------------------------------------------------------------------------------




--------------------------------------- Iteration      1(   5)  ---------------------------------------


     EDDAV:  cpu time      2.2129: real time      2.2295
       DOS:  cpu time      0.0003: real time      0.0003
    --------------------------------------------
      LOOP:  cpu time      2.2133: real time      2.2299

 eigenvalue-minimisations  :  3368
 total energy-change (2. order) :-0.2525016E+00  (-0.2524046E+00)
 number of electron     240.0000000 magnetization      52.0000000
 augmentation part      240.0000000 magnetization      52.0000000

 Free energy of the ion-electron system (eV)
  ---------------------------------------------------
  alpha Z        PSCENC =       297.46641200
  Ewald energy   TEWEN  =     -8761.55955051
  -Hartree energ DENC   =     -2137.30695689
  -exchange      EXHF   =         0.00000000
  -V(xc)+E(xc)   XCENC  =       533.67156363
  PAW double counting   =      8141.38806575    -8271.61346273
  entropy T*S    EENTRO =        -0.00000000
  eigenvalues    EBANDS =     -2746.88669744
  atomic energy  EATOM  =     12703.13999606
  Solvation  Ediel_sol  =         0.00000000
  ---------------------------------------------------
  free energy    TOTEN  =      -241.70063012 eV

  energy without entropy =     -241.70063012  energy(sigma->0) =     -241.70063012


--------------------------------------------------------------------------------------------------------




--------------------------------------- Iteration      1(   6)  ---------------------------------------


     EDDAV:  cpu time      2.2619: real time      2.2795
       DOS:  cpu time      0.0006: real time      0.0006
    --------------------------------------------
      LOOP:  cpu time      2.2624: real time      2.2801

 eigenvalue-minimisations  :  3464
 total energy-change (2. order) :-0.1003568E-01  (-0.1003456E-01)
 number of electron     240.0000000 magnetization      52.0000000
 augmentation part      240.0000000 magnetization      52.0000000

 Free energy of the ion-electron system (eV)
  ---------------------------------------------------
  alpha Z        PSCENC =       297.46641200
  Ewald energy   TEWEN  =     -8761.55955051
  -Hartree energ DENC   =     -2137.30695689
  -exchange      EXHF   =         0.00000000
  -V(xc)+E(xc)   XCENC  =       533.67156363
  PAW double counting   =      8141.38806575    -8271.61346273
  entropy T*S    EENTRO =        -0.00000000
  eigenvalues    EBANDS =     -2746.89673312
  atomic energy  EATOM  =     12703.13999606
  Solvation  Ediel_sol  =         0.00000000
  ---------------------------------------------------
  free energy    TOTEN  =      -241.71066580 eV

  energy without entropy =     -241.71066580  energy(sigma->0) =     -241.71066580


--------------------------------------------------------------------------------------------------------




--------------------------------------- Iteration      1(   7)  ---------------------------------------


     EDDAV:  cpu time      2.2469: real time      2.2639
       DOS:  cpu time      0.0004: real time      0.0004
    --------------------------------------------
      LOOP:  cpu time      2.2473: real time      2.2642

 eigenvalue-minimisations  :  3432
 total energy-change (2. order) :-0.3974720E-03  (-0.3974488E-03)
 number of electron     240.0000000 magnetization      52.0000000
 augmentation part      240.0000000 magnetization      52.0000000

 Free energy of the ion-electron system (eV)
  ---------------------------------------------------
  alpha Z        PSCENC =       297.46641200
  Ewald energy   TEWEN  =     -8761.55955051
  -Hartree energ DENC   =     -2137.30695689
  -exchange      EXHF   =         0.00000000
  -V(xc)+E(xc)   XCENC  =       533.67156363
  PAW double counting   =      8141.38806575    -8271.61346273
  entropy T*S    EENTRO =        -0.00000000
  eigenvalues    EBANDS =     -2746.89713059
  atomic energy  EATOM  =     12703.13999606
  Solvation  Ediel_sol  =         0.00000000
  ---------------------------------------------------
  free energy    TOTEN  =      -241.71106327 eV

  energy without entropy =     -241.71106327  energy(sigma->0) =     -241.71106327


--------------------------------------------------------------------------------------------------------




--------------------------------------- Iteration      1(   8)  ---------------------------------------


     EDDAV:  cpu time      2.2297: real time      2.2477
       DOS:  cpu time      0.0004: real time      0.0004
    --------------------------------------------
      LOOP:  cpu time      2.2301: real time      2.2481

 eigenvalue-minimisations  :  3408
 total energy-change (2. order) :-0.2417665E-04  (-0.2417618E-04)
 number of electron     240.0000000 magnetization      52.0000000
 augmentation part      240.0000000 magnetization      52.0000000

 Free energy of the ion-electron system (eV)
  ---------------------------------------------------
  alpha Z        PSCENC =       297.46641200
  Ewald energy   TEWEN  =     -8761.55955051
  -Hartree energ DENC   =     -2137.30695689
  -exchange      EXHF   =         0.00000000
  -V(xc)+E(xc)   XCENC  =       533.67156363
  PAW double counting   =      8141.38806575    -8271.61346273
  entropy T*S    EENTRO =        -0.00000000
  eigenvalues    EBANDS =     -2746.89715477
  atomic energy  EATOM  =     12703.13999606
  Solvation  Ediel_sol  =         0.00000000
  ---------------------------------------------------
  free energy    TOTEN  =      -241.71108745 eV

  energy without entropy =     -241.71108745  energy(sigma->0) =     -241.71108745


--------------------------------------------------------------------------------------------------------




--------------------------------------- Iteration      1(   9)  ---------------------------------------


     EDDAV:  cpu time      2.2360: real time      2.2548
       DOS:  cpu time      0.0004: real time      0.0004
    --------------------------------------------
      LOOP:  cpu time      2.2363: real time      2.2552

 eigenvalue-minimisations  :  3408
 total energy-change (2. order) :-0.1612261E-05  (-0.1611982E-05)
 number of electron     240.0000000 magnetization      52.0000000
 augmentation part      240.0000000 magnetization      52.0000000

 Free energy of the ion-electron system (eV)
  ---------------------------------------------------
  alpha Z        PSCENC =       297.46641200
  Ewald energy   TEWEN  =     -8761.55955051
  -Hartree energ DENC   =     -2137.30695689
  -exchange      EXHF   =         0.00000000
  -V(xc)+E(xc)   XCENC  =       533.67156363
  PAW double counting   =      8141.38806575    -8271.61346273
  entropy T*S    EENTRO =        -0.00000000
  eigenvalues    EBANDS =     -2746.89715638
  atomic energy  EATOM  =     12703.13999606
  Solvation  Ediel_sol  =         0.00000000
  ---------------------------------------------------
  free energy    TOTEN  =      -241.71108906 eV

  energy without entropy =     -241.71108906  energy(sigma->0) =     -241.71108906


--------------------------------------------------------------------------------------------------------




--------------------------------------- Iteration      1(  10)  ---------------------------------------


     EDDAV:  cpu time      1.4750: real time      1.4956
       DOS:  cpu time      0.0004: real time      0.0004
    CHARGE:  cpu time      0.1945: real time      0.4892
    MIXING:  cpu time      0.0019: real time      0.0040
    --------------------------------------------
      LOOP:  cpu time      1.6718: real time      1.9892

 eigenvalue-minimisations  :  1976
 total energy-change (2. order) :-0.7434755E-07  (-0.7440881E-07)
 number of electron     239.9999992 magnetization      27.4074611
 augmentation part        1.4884341 magnetization      27.8487144

 Broyden mixing:
  rms(total) = 0.64833E+01    rms(broyden)= 0.64830E+01
  rms(prec ) = 0.67262E+01
  weight for this iteration     100.00

 Free energy of the ion-electron system (eV)
  ---------------------------------------------------
  alpha Z        PSCENC =       297.46641200
  Ewald energy   TEWEN  =     -8761.55955051
  -Hartree energ DENC   =     -2137.30695689
  -exchange      EXHF   =         0.00000000
  -V(xc)+E(xc)   XCENC  =       533.67156363
  PAW double counting   =      8141.38806575    -8271.61346273
  entropy T*S    EENTRO =        -0.00000000
  eigenvalues    EBANDS =     -2746.89715646
  atomic energy  EATOM  =     12703.13999606
  Solvation  Ediel_sol  =         0.00000000
  ---------------------------------------------------
  free energy    TOTEN  =      -241.71108914 eV

  energy without entropy =     -241.71108914  energy(sigma->0) =     -241.71108914


--------------------------------------------------------------------------------------------------------




--------------------------------------- Iteration      1(  11)  ---------------------------------------


    POTLOK:  cpu time      0.0551: real time      0.0593
    SETDIJ:  cpu time      0.4035: real time      0.4119
    EDDIAG:  cpu time      0.2682: real time      0.2799
  RMM-DIIS:  cpu time      0.8715: real time      0.8787
    ORTHCH:  cpu time      0.0505: real time      0.0535
       DOS:  cpu time      0.0004: real time      0.0004
    CHARGE:  cpu time      0.1885: real time      0.3622
    MIXING:  cpu time      0.0010: real time      0.0546
    --------------------------------------------
      LOOP:  cpu time      1.8388: real time      2.1005

 eigenvalue-minimisations  :  2112
 total energy-change (2. order) : 0.7475621E+01  (-0.4956382E+01)
 number of electron     239.9999992 magnetization      16.4131427
 augmentation part        1.6953869 magnetization      16.6007548

 Broyden mixing:
  rms(total) = 0.33206E+01    rms(broyden)= 0.33205E+01
  rms(prec ) = 0.34383E+01
  weight for this iteration     100.00

 eigenvalues of (default mixing * dielectric matrix)
  average eigenvalue GAMMA=   0.7266
  0.7266

 Free energy of the ion-electron system (eV)
  ---------------------------------------------------
  alpha Z        PSCENC =       297.46641200
  Ewald energy   TEWEN  =     -8761.55955051
  -Hartree energ DENC   =     -2187.33067172
  -exchange      EXHF   =         0.00000000
  -V(xc)+E(xc)   XCENC  =       542.43838924
  PAW double counting   =      8933.26116472    -9069.60057358
  entropy T*S    EENTRO =        -0.00000000
  eigenvalues    EBANDS =     -2692.05063429
  atomic energy  EATOM  =     12703.13999606
  Solvation  Ediel_sol  =         0.00000000
  ---------------------------------------------------
  free energy    TOTEN  =      -234.23546805 eV

  energy without entropy =     -234.23546805  energy(sigma->0) =     -234.23546805


--------------------------------------------------------------------------------------------------------




--------------------------------------- Iteration      1(  12)  ---------------------------------------


    POTLOK:  cpu time      0.0507: real time      0.0548
    SETDIJ:  cpu time      0.4134: real time      0.4208
    EDDIAG:  cpu time      0.2696: real time      0.2715
  RMM-DIIS:  cpu time      0.9191: real time      0.9264
    ORTHCH:  cpu time      0.0507: real time      0.0514
       DOS:  cpu time      0.0004: real time      0.0004
    CHARGE:  cpu time      0.1080: real time      0.1572
    MIXING:  cpu time      0.0016: real time      0.0017
    --------------------------------------------
      LOOP:  cpu time      1.8135: real time      1.8842

 eigenvalue-minimisations  :  2226
 total energy-change (2. order) :-0.2118783E+02  (-0.2390091E+01)
 number of electron     239.9999992 magnetization       1.0086633
 augmentation part        1.8037412 magnetization       1.3552309

 Broyden mixing:
  rms(total) = 0.20809E+01    rms(broyden)= 0.20809E+01
  rms(prec ) = 0.21408E+01
  weight for this iteration     100.00

 eigenvalues of (default mixing * dielectric matrix)
  average eigenvalue GAMMA=   1.1075
  1.5481  0.6669

 Free energy of the ion-electron system (eV)
  ---------------------------------------------------
  alpha Z        PSCENC =       297.46641200
  Ewald energy   TEWEN  =     -8761.55955051
  -Hartree energ DENC   =     -2213.27510953
  -exchange      EXHF   =         0.00000000
  -V(xc)+E(xc)   XCENC  =       535.96087164
  PAW double counting   =      9293.06682368    -9433.08687224
  entropy T*S    EENTRO =        -0.00000000
  eigenvalues    EBANDS =     -2677.13586949
  atomic energy  EATOM  =     12703.13999606
  Solvation  Ediel_sol  =         0.00000000
  ---------------------------------------------------
  free energy    TOTEN  =      -255.42329839 eV

  energy without entropy =     -255.42329839  energy(sigma->0) =     -255.42329839


--------------------------------------------------------------------------------------------------------




--------------------------------------- Iteration      1(  13)  ---------------------------------------


    POTLOK:  cpu time      0.0503: real time      0.0545
    SETDIJ:  cpu time      0.4028: real time      0.4114
    EDDIAG:  cpu time      0.2679: real time      0.2695
  RMM-DIIS:  cpu time      0.8920: real time      0.8993
    ORTHCH:  cpu time      0.0494: real time      0.0500
       DOS:  cpu time      0.0004: real time      0.0005
    CHARGE:  cpu time      0.1112: real time      0.1510
    MIXING:  cpu time      0.0011: real time      0.0012
    --------------------------------------------
      LOOP:  cpu time      1.7752: real time      1.8374

 eigenvalue-minimisations  :  2159
 total energy-change (2. order) :-0.2508658E+01  (-0.8878868E+00)
 number of electron     239.9999992 magnetization      -1.9161022
 augmentation part        1.9050146 magnetization      -1.8040885

 Broyden mixing:
  rms(total) = 0.73016E+00    rms(broyden)= 0.73016E+00
  rms(prec ) = 0.76185E+00
  weight for this iteration     100.00

 eigenvalues of (default mixing * dielectric matrix)
  average eigenvalue GAMMA=   1.3061
  2.5271  0.7409  0.6505

 Free energy of the ion-electron system (eV)
  ---------------------------------------------------
  alpha Z        PSCENC =       297.46641200
  Ewald energy   TEWEN  =     -8761.55955051
  -Hartree energ DENC   =     -2241.14592818
  -exchange      EXHF   =         0.00000000
  -V(xc)+E(xc)   XCENC  =       537.36290648
  PAW double counting   =      9781.16433062    -9925.01940142
  entropy T*S    EENTRO =        -0.00000000
  eigenvalues    EBANDS =     -2649.34072158
  atomic energy  EATOM  =     12703.13999606
  Solvation  Ediel_sol  =         0.00000000
  ---------------------------------------------------
  free energy    TOTEN  =      -257.93195652 eV

  energy without entropy =     -257.93195652  energy(sigma->0) =     -257.93195652


--------------------------------------------------------------------------------------------------------




--------------------------------------- Iteration      1(  14)  ---------------------------------------


    POTLOK:  cpu time      0.0513: real time      0.0539
    SETDIJ:  cpu time      0.4114: real time      0.4131
    EDDIAG:  cpu time      0.2678: real time      0.2694
  RMM-DIIS:  cpu time      1.1710: real time      1.1841
    ORTHCH:  cpu time      0.0496: real time      0.0503
       DOS:  cpu time      0.0004: real time      0.0004
    CHARGE:  cpu time      0.1136: real time      0.1408
    MIXING:  cpu time      0.0010: real time      0.0011
    --------------------------------------------
      LOOP:  cpu time      2.0663: real time      2.1130

 eigenvalue-minimisations  :  2800
 total energy-change (2. order) :-0.1998543E+00  (-0.2128214E+00)
 number of electron     239.9999992 magnetization      -0.8474123
 augmentation part        1.8785757 magnetization      -0.8225406

 Broyden mixing:
  rms(total) = 0.32285E+00    rms(broyden)= 0.32285E+00
  rms(prec ) = 0.36105E+00
  weight for this iteration     100.00

 eigenvalues of (default mixing * dielectric matrix)
  average eigenvalue GAMMA=   1.2738
  2.6288  1.1768  0.6916  0.5981

 Free energy of the ion-electron system (eV)
  ---------------------------------------------------
  alpha Z        PSCENC =       297.46641200
  Ewald energy   TEWEN  =     -8761.55955051
  -Hartree energ DENC   =     -2243.70719875
  -exchange      EXHF   =         0.00000000
  -V(xc)+E(xc)   XCENC  =       537.92819646
  PAW double counting   =      9872.95254266   -10017.72078841
  entropy T*S    EENTRO =        -0.00000000
  eigenvalues    EBANDS =     -2646.63142036
  atomic energy  EATOM  =     12703.13999606
  Solvation  Ediel_sol  =         0.00000000
  ---------------------------------------------------
  free energy    TOTEN  =      -258.13181085 eV

  energy without entropy =     -258.13181085  energy(sigma->0) =     -258.13181085


--------------------------------------------------------------------------------------------------------




--------------------------------------- Iteration      1(  15)  ---------------------------------------


    POTLOK:  cpu time      0.0506: real time      0.0531
    SETDIJ:  cpu time      0.4105: real time      0.4124
    EDDIAG:  cpu time      0.2678: real time      0.2695
  RMM-DIIS:  cpu time      0.9475: real time      0.9555
    ORTHCH:  cpu time      0.0497: real time      0.0504
       DOS:  cpu time      0.0005: real time      0.0005
    CHARGE:  cpu time      0.1121: real time      0.1397
    MIXING:  cpu time      0.0013: real time      0.0014
    --------------------------------------------
      LOOP:  cpu time      1.8400: real time      1.8824

 eigenvalue-minimisations  :  2290
 total energy-change (2. order) : 0.3891923E-01  (-0.3558106E-01)
 number of electron     239.9999992 magnetization      -0.2197192
 augmentation part        1.8291969 magnetization      -0.1940495

 Broyden mixing:
  rms(total) = 0.67274E-01    rms(broyden)= 0.67272E-01
  rms(prec ) = 0.80568E-01
  weight for this iteration     100.00

 eigenvalues of (default mixing * dielectric matrix)
  average eigenvalue GAMMA=   1.2724
  2.5282  1.5807  0.9604  0.6868  0.6057

 Free energy of the ion-electron system (eV)
  ---------------------------------------------------
  alpha Z        PSCENC =       297.46641200
  Ewald energy   TEWEN  =     -8761.55955051
  -Hartree energ DENC   =     -2238.75545199
  -exchange      EXHF   =         0.00000000
  -V(xc)+E(xc)   XCENC  =       537.52801225
  PAW double counting   =      9839.57825417    -9984.12432780
  entropy T*S    EENTRO =        -0.00000000
  eigenvalues    EBANDS =     -2651.36623580
  atomic energy  EATOM  =     12703.13999606
  Solvation  Ediel_sol  =         0.00000000
  ---------------------------------------------------
  free energy    TOTEN  =      -258.09289162 eV

  energy without entropy =     -258.09289162  energy(sigma->0) =     -258.09289162


--------------------------------------------------------------------------------------------------------




--------------------------------------- Iteration      1(  16)  ---------------------------------------


    POTLOK:  cpu time      0.0506: real time      0.0530
    SETDIJ:  cpu time      0.4106: real time      0.4121
    EDDIAG:  cpu time      0.2682: real time      0.2698
  RMM-DIIS:  cpu time      1.1987: real time      1.2128
    ORTHCH:  cpu time      0.0650: real time      0.0654
       DOS:  cpu time      0.0004: real time      0.0004
    CHARGE:  cpu time      0.4915: real time      0.5224
    MIXING:  cpu time      0.0013: real time      0.0013
    --------------------------------------------
      LOOP:  cpu time      2.4862: real time      2.5372

 eigenvalue-minimisations  :  2310
 total energy-change (2. order) :-0.2024832E-01  (-0.1153194E-01)
 number of electron     239.9999992 magnetization      -0.1091863
 augmentation part        1.8062200 magnetization      -0.0948010

 Broyden mixing:
  rms(total) = 0.31015E-01    rms(broyden)= 0.31014E-01
  rms(prec ) = 0.37862E-01
  weight for this iteration     100.00

 eigenvalues of (default mixing * dielectric matrix)
  average eigenvalue GAMMA=   1.2464
  2.4333  1.9357  1.0428  0.6225  0.7010  0.7430

 Free energy of the ion-electron system (eV)
  ---------------------------------------------------
  alpha Z        PSCENC =       297.46641200
  Ewald energy   TEWEN  =     -8761.55955051
  -Hartree energ DENC   =     -2238.22687540
  -exchange      EXHF   =         0.00000000
  -V(xc)+E(xc)   XCENC  =       537.44540728
  PAW double counting   =      9827.66878339    -9971.97412481
  entropy T*S    EENTRO =        -0.00000000
  eigenvalues    EBANDS =     -2652.07318795
  atomic energy  EATOM  =     12703.13999606
  Solvation  Ediel_sol  =         0.00000000
[...]
 -0.001   0.001  -0.000   0.506  -0.307   0.102   0.004  -0.003   0.001   0.007   0.000  -0.000  -0.008   0.001
  0.001  -0.001   0.000  -0.307   0.506  -0.102  -0.003   0.004  -0.001  -0.008  -0.000   0.000   0.007  -0.001
 -0.325   0.334   0.001   0.102  -0.102   1.121   0.001  -0.001   0.009  -0.001  -0.008   0.007   0.001  -0.012
 -0.000   0.000   0.000   0.004  -0.003   0.001   0.000  -0.000   0.000   0.000   0.000  -0.000  -0.000   0.000
  0.000  -0.000  -0.000  -0.003   0.004  -0.001  -0.000   0.000  -0.000  -0.000  -0.000   0.000   0.000  -0.000
 -0.002   0.002   0.000   0.001  -0.001   0.009   0.000  -0.000   0.000  -0.000  -0.000   0.000   0.000  -0.000
  0.015  -0.015  -0.000   0.007  -0.008  -0.001   0.000  -0.000  -0.000   0.000  -0.000  -0.000  -0.000   0.000
 -0.037   0.037   0.000   0.000  -0.000  -0.008   0.000  -0.000  -0.000  -0.000   0.000  -0.000   0.000   0.000
 -0.024   0.024   0.000  -0.000   0.000   0.007  -0.000   0.000   0.000  -0.000  -0.000   0.000   0.000  -0.000
 -0.015   0.015   0.000  -0.008   0.007   0.001  -0.000   0.000   0.000  -0.000   0.000   0.000   0.000  -0.000
  0.041  -0.041  -0.000   0.001  -0.001  -0.012   0.000  -0.000  -0.000   0.000   0.000  -0.000  -0.000   0.000
 total augmentation occupancy for first ion, spin component:           2
  0.000  -0.000   0.000  -0.000   0.000  -0.000  -0.000   0.000   0.000  -0.000  -0.000   0.000   0.000  -0.000
 -0.000   0.000  -0.000   0.000  -0.000   0.000   0.000  -0.000  -0.000   0.000   0.000  -0.000  -0.000   0.000
  0.000  -0.000  -0.000  -0.000   0.000   0.000   0.000  -0.000  -0.000   0.000  -0.000  -0.000  -0.000   0.000
 -0.000   0.000  -0.000   0.000  -0.000   0.000  -0.000   0.000   0.000   0.000   0.000   0.000   0.000  -0.000
  0.000  -0.000   0.000  -0.000   0.000  -0.000   0.000  -0.000  -0.000   0.000  -0.000   0.000   0.000   0.000
 -0.000   0.000   0.000   0.000  -0.000   0.000   0.000  -0.000  -0.000  -0.000  -0.000   0.000   0.000  -0.000
 -0.000   0.000   0.000  -0.000   0.000   0.000  -0.000   0.000   0.000  -0.000   0.000   0.000   0.000  -0.000
  0.000  -0.000  -0.000   0.000  -0.000  -0.000   0.000  -0.000  -0.000   0.000  -0.000  -0.000  -0.000   0.000
  0.000  -0.000  -0.000   0.000  -0.000  -0.000   0.000  -0.000  -0.000   0.000  -0.000  -0.000  -0.000   0.000
 -0.000   0.000   0.000   0.000   0.000  -0.000  -0.000   0.000   0.000  -0.000   0.000   0.000  -0.000  -0.000
 -0.000   0.000  -0.000   0.000  -0.000  -0.000   0.000  -0.000  -0.000   0.000   0.000  -0.000  -0.000   0.000
  0.000  -0.000  -0.000   0.000   0.000   0.000   0.000  -0.000  -0.000   0.000  -0.000   0.000   0.000   0.000
  0.000  -0.000  -0.000   0.000   0.000   0.000   0.000  -0.000  -0.000  -0.000  -0.000   0.000  -0.000   0.000
 -0.000   0.000   0.000  -0.000   0.000  -0.000  -0.000   0.000   0.000  -0.000   0.000   0.000   0.000  -0.000


------------------------ aborting loop because EDIFF is reached ----------------------------------------


    CHARGE:  cpu time      0.0988: real time      0.0995
    FORLOC:  cpu time      0.0037: real time      0.0037
    FORNL :  cpu time      0.3043: real time      0.3069
    STRESS:  cpu time      0.9058: real time      0.9116
    FORCOR:  cpu time      0.0492: real time      0.0495
    FORHAR:  cpu time      0.0081: real time      0.0082
    MIXING:  cpu time      0.0007: real time      0.0007
    OFIELD:  cpu time      0.0000: real time      0.0000

 ---------------------------------------------------------------------------------------------

         DFTD3 V3.0 Rev 1        
 Edisp (eV)  -13.39619

 E6    (eV) :    -8.2567
 E8    (eV) :    -5.1395
 % E8        : 38.37
    FORVDW:  cpu time      0.2897: real time      0.2917

  FORCE on cell =-STRESS in cart. coord.  units (eV):
  Direction    XX          YY          ZZ          XY          YZ          ZX
  --------------------------------------------------------------------------------------
  Alpha Z   297.46641   297.46641   297.46641
  Ewald   -2938.05689 -2911.77972 -2911.77972    28.15502   -55.32094   -28.15502
  Hartree   738.88548   751.04701   751.04701    14.98425   -30.81108   -14.98426
  E(xc)    -947.63206  -947.60011  -947.60011     0.05368    -0.16641    -0.05368
  Local   -1506.52967 -1542.58091 -1542.58091   -43.94949    85.66065    43.94949
  n-local  1481.19934  1481.45969  1481.32921     0.34424    -0.76000    -1.34058
  augment  -356.77268  -356.90285  -356.90290    -0.09535    -0.29718     0.09875
  Kinetic  3244.10061  3244.03047  3243.88323     0.14379     4.31540    -1.54901
  Fock        0.00000     0.00000     0.00000     0.00000     0.00000     0.00000
  vdW       -14.21631   -14.23598   -14.23598    -0.00084     0.03095     0.00084
  -------------------------------------------------------------------------------------
  Total      -1.55576     0.76513     0.76513     0.83429     2.65117    -0.83429
  in kB      -2.73143     1.34332     1.34332     1.46476     4.65461    -1.46476
  external pressure =       -0.01 kB  Pullay stress =        0.00 kB


 VOLUME and BASIS-vectors are now :
 -----------------------------------------------------------------------------
  energy-cutoff  :      520.00
  volume of cell :      912.57
      direct lattice vectors                 reciprocal lattice vectors
     9.699618175  0.000000000  0.000000000     0.103096842  0.000000000  0.000000000
     0.000000000  9.699618175  0.000000000     0.000000000  0.103096842  0.000000000
     0.000000000  0.000000000  9.699618175     0.000000000  0.000000000  0.103096842

  length of vectors
     9.699618175  9.699618175  9.699618175     0.103096842  0.103096842  0.103096842


 FORCES acting on ions
    electron-ion (+dipol)            ewald-force                    non-local-force                 convergence-correction
 -----------------------------------------------------------------------------------------------
   -.528E+01 -.258E+01 0.258E+01   0.439E+01 0.262E+01 -.262E+01   0.883E+00 -.373E-01 0.373E-01   -.356E-04 -.185E-03 0.185E-03
   -.682E+01 -.240E+01 0.240E+01   0.594E+01 0.234E+01 -.234E+01   0.874E+00 0.540E-01 -.540E-01   -.457E-03 -.156E-03 0.156E-03
   0.526E+01 0.540E+01 -.608E+01   -.449E+01 -.480E+01 0.454E+01   -.767E+00 -.606E+00 0.154E+01   -.279E-03 0.129E-03 -.339E-04
   0.526E+01 0.608E+01 -.540E+01   -.449E+01 -.454E+01 0.480E+01   -.767E+00 -.154E+01 0.606E+00   -.279E-03 0.339E-04 -.129E-03
   0.198E+01 0.324E+01 -.445E+01   -.739E+00 -.207E+01 0.356E+01   -.124E+01 -.118E+01 0.878E+00   0.145E-03 -.341E-04 0.185E-03
   0.389E+01 -.499E+01 0.202E+01   -.247E+01 0.399E+01 -.145E+01   -.142E+01 0.990E+00 -.576E+00   -.252E-03 -.321E-04 0.332E-03
   -.454E+01 0.791E+01 0.663E+01   0.476E+01 -.877E+01 -.583E+01   -.226E+00 0.870E+00 -.800E+00   -.511E-04 -.951E-04 -.420E-04
   -.556E+01 -.943E+01 0.414E+01   0.438E+01 0.857E+01 -.483E+01   0.118E+01 0.860E+00 0.686E+00   -.364E-04 -.402E-04 0.519E-04
   -.529E+01 0.224E+01 -.539E+00   0.467E+01 -.290E+01 -.522E+00   0.625E+00 0.662E+00 0.106E+01   -.816E-04 0.195E-03 -.433E-03
   -.414E+01 0.541E+01 0.123E+01   0.302E+01 -.482E+01 -.131E+00   0.112E+01 -.594E+00 -.110E+01   0.329E-03 0.128E-03 0.985E-04
   0.571E+01 -.306E+01 0.226E+01   -.484E+01 0.276E+01 -.885E+00   -.866E+00 0.290E+00 -.138E+01   -.389E-05 0.186E-03 -.152E-03
   -.374E+01 0.151E+01 0.586E+01   0.263E+01 -.874E+00 -.465E+01   0.111E+01 -.635E+00 -.120E+01   -.695E-04 0.845E-04 0.903E-04
   -.414E+01 -.123E+01 -.541E+01   0.302E+01 0.131E+00 0.482E+01   0.112E+01 0.110E+01 0.594E+00   0.329E-03 -.985E-04 -.128E-03
   -.529E+01 0.539E+00 -.224E+01   0.467E+01 0.522E+00 0.290E+01   0.625E+00 -.106E+01 -.662E+00   -.816E-04 0.433E-03 -.195E-03
   0.571E+01 -.226E+01 0.306E+01   -.484E+01 0.885E+00 -.276E+01   -.866E+00 0.138E+01 -.290E+00   -.389E-05 0.152E-03 -.186E-03
   -.374E+01 -.586E+01 -.151E+01   0.263E+01 0.465E+01 0.874E+00   0.111E+01 0.120E+01 0.635E+00   -.695E-04 -.903E-04 -.845E-04
   0.389E+01 -.202E+01 0.499E+01   -.247E+01 0.145E+01 -.399E+01   -.142E+01 0.576E+00 -.990E+00   -.252E-03 -.332E-03 0.321E-04
   0.198E+01 0.445E+01 -.324E+01   -.739E+00 -.356E+01 0.207E+01   -.124E+01 -.878E+00 0.118E+01   0.145E-03 -.185E-03 0.341E-04
   -.454E+01 -.663E+01 -.791E+01   0.476E+01 0.583E+01 0.877E+01   -.226E+00 0.800E+00 -.870E+00   -.511E-04 0.420E-04 0.951E-04
   -.556E+01 -.414E+01 0.943E+01   0.438E+01 0.483E+01 -.857E+01   0.118E+01 -.686E+00 -.860E+00   -.364E-04 -.519E-04 0.402E-04
   0.555E+01 -.118E+02 -.504E+01   -.674E+01 0.106E+02 0.444E+01   0.119E+01 0.118E+01 0.599E+00   0.164E-03 -.191E-03 0.105E-03
   0.555E+01 0.504E+01 0.118E+02   -.674E+01 -.444E+01 -.106E+02   0.119E+01 -.599E+00 -.118E+01   0.164E-03 -.105E-03 0.191E-03
   -.497E+01 0.115E+02 -.115E+02   0.559E+01 -.102E+02 0.102E+02   -.624E+00 -.129E+01 0.129E+01   0.241E-03 0.133E-03 -.133E-03
   0.217E+02 -.942E+01 0.942E+01   -.216E+02 0.103E+02 -.103E+02   -.320E-01 -.843E+00 0.843E+00   0.185E-03 -.634E-04 0.634E-04
   0.838E+00 -.281E+01 -.615E+01   -.159E+01 0.315E+01 0.692E+01   0.748E+00 -.337E+00 -.766E+00   0.236E-03 -.133E-03 -.290E-03
   0.838E+00 0.615E+01 0.281E+01   -.159E+01 -.692E+01 -.315E+01   0.748E+00 0.766E+00 0.337E+00   0.236E-03 0.290E-03 0.133E-03
   -.145E+02 0.462E+01 -.462E+01   0.148E+02 -.419E+01 0.419E+01   -.335E+00 -.427E+00 0.427E+00   -.108E-03 0.771E-04 -.771E-04
   0.111E+01 0.511E+01 -.511E+01   -.141E+01 -.523E+01 0.523E+01   0.303E+00 0.115E+00 -.115E+00   -.319E-03 0.261E-03 -.261E-03
   -.465E+02 0.431E+02 -.431E+02   0.498E+02 -.463E+02 0.463E+02   -.323E+01 0.325E+01 -.325E+01   -.744E-03 0.354E-03 -.354E-03
   -.297E+02 -.420E+02 0.420E+02   0.328E+02 0.450E+02 -.450E+02   -.313E+01 -.302E+01 0.302E+01   -.308E-03 0.273E-03 -.273E-03
   0.423E+02 0.433E+02 0.333E+02   -.457E+02 -.461E+02 -.365E+02   0.345E+01 0.289E+01 0.322E+01   -.277E-03 0.789E-04 -.141E-03
   0.423E+02 -.333E+02 -.433E+02   -.457E+02 0.365E+02 0.461E+02   0.345E+01 -.322E+01 -.289E+01   -.277E-03 0.141E-03 -.789E-04
   0.272E+02 -.435E+02 -.506E+02   -.302E+02 0.468E+02 0.534E+02   0.297E+01 -.335E+01 -.277E+01   -.222E-03 0.727E-04 0.139E-03
   0.272E+02 0.506E+02 0.435E+02   -.302E+02 -.534E+02 -.468E+02   0.297E+01 0.277E+01 0.335E+01   -.222E-03 -.139E-03 -.727E-04
   -.744E+02 -.328E+02 0.328E+02   0.786E+02 0.352E+02 -.352E+02   -.422E+01 -.243E+01 0.243E+01   -.397E-03 -.313E-03 0.313E-03
   -.676E+02 0.211E+02 -.211E+02   0.723E+02 -.237E+02 0.237E+02   -.466E+01 0.262E+01 -.262E+01   -.159E-03 0.122E-03 -.122E-03
   -.332E+02 -.344E+02 0.469E+02   0.355E+02 0.374E+02 -.506E+02   -.237E+01 -.306E+01 0.368E+01   0.216E-03 0.329E-03 0.676E-04
   -.235E+02 0.410E+02 -.480E+02   0.260E+02 -.440E+02 0.512E+02   -.243E+01 0.293E+01 -.330E+01   0.176E-03 0.317E-04 0.204E-03
   0.294E+02 -.504E+02 -.320E+02   -.313E+02 0.544E+02 0.348E+02   0.187E+01 -.398E+01 -.282E+01   -.567E-04 0.309E-03 0.108E-03
   0.296E+02 0.772E+02 0.487E+02   -.313E+02 -.816E+02 -.516E+02   0.171E+01 0.436E+01 0.286E+01   0.491E-03 0.490E-03 0.558E-03
   -.332E+02 -.469E+02 0.344E+02   0.355E+02 0.506E+02 -.374E+02   -.237E+01 -.368E+01 0.306E+01   0.216E-03 -.676E-04 -.329E-03
   -.235E+02 0.480E+02 -.410E+02   0.260E+02 -.512E+02 0.440E+02   -.243E+01 0.330E+01 -.293E+01   0.176E-03 -.204E-03 -.317E-04
   0.296E+02 -.487E+02 -.772E+02   -.313E+02 0.516E+02 0.816E+02   0.171E+01 -.286E+01 -.436E+01   0.491E-03 -.558E-03 -.490E-03
   0.294E+02 0.320E+02 0.504E+02   -.313E+02 -.348E+02 -.544E+02   0.187E+01 0.282E+01 0.398E+01   -.567E-04 -.108E-03 -.309E-03
   0.309E+02 -.361E+01 0.361E+01   -.317E+02 0.354E+01 -.354E+01   0.826E+00 0.744E-01 -.744E-01   0.252E-03 -.137E-04 0.137E-04
   0.971E+01 0.732E+01 -.732E+01   -.103E+02 -.749E+01 0.749E+01   0.572E+00 0.167E+00 -.167E+00   -.277E-03 -.105E-03 0.105E-03
   -.306E+01 0.644E+01 0.115E+02   0.318E+01 -.661E+01 -.117E+02   -.114E+00 0.157E+00 0.273E+00   -.556E-04 0.397E-04 -.446E-03
   -.306E+01 -.115E+02 -.644E+01   0.318E+01 0.117E+02 0.661E+01   -.114E+00 -.273E+00 -.157E+00   -.556E-04 0.446E-03 -.397E-04
   -.944E+01 -.281E+01 0.536E+01   0.973E+01 0.300E+01 -.520E+01   -.287E+00 -.188E+00 -.168E+00   -.281E-03 -.634E-04 0.349E-03
   -.944E+01 -.536E+01 0.281E+01   0.973E+01 0.520E+01 -.300E+01   -.287E+00 0.168E+00 0.188E+00   -.281E-03 -.349E-03 0.634E-04
   -.682E+01 -.538E+01 0.538E+01   0.675E+01 0.561E+01 -.561E+01   0.684E-01 -.231E+00 0.231E+00   0.144E-02 -.117E-03 0.117E-03
   0.730E+02 -.961E+01 0.961E+01   -.748E+02 0.921E+01 -.921E+01   0.184E+01 0.405E+00 -.405E+00   0.302E-03 -.409E-03 0.409E-03
 -----------------------------------------------------------------------------------------------
   -.164E+01 0.231E+00 -.231E+00   0.426E-13 -.355E-14 -.195E-13   0.163E+01 -.244E+00 0.244E+00   -.199E-03 0.593E-03 -.593E-03
 
 
 POSITION                                       TOTAL-FORCE (eV/Angst)
 -----------------------------------------------------------------------------------
      9.50104      2.57978      2.26872         0.000011      0.000082     -0.000082
      9.54409      7.42910      7.11903         0.000100      0.000020     -0.000020
      0.10718      1.72663      7.86184         0.000085     -0.000075      0.000071
      0.10718      6.68629      3.12187         0.000085     -0.000071      0.000075
      2.09642      1.81218      9.64735        -0.000006      0.000051     -0.000005
      1.66717      7.88123      0.37169         0.000116     -0.000050     -0.000131
      6.77630      2.77630      0.21877         0.000006     -0.000012      0.000053
      7.93743      8.17135      9.32779         0.000057     -0.000051      0.000053
      2.62334      9.36586      2.75652        -0.000305     -0.000077     -0.000233
      3.23812      0.18589      7.04325         0.000049     -0.000016     -0.000072
      6.59292      9.53357      6.79099        -0.000002     -0.000117      0.000055
      7.96056      0.25008      1.88812        -0.000020     -0.000098      0.000032
      3.23812      7.50487      4.66262         0.000049      0.000072      0.000016
      2.62334      2.09199      5.18226        -0.000305      0.000233      0.000077
      6.59292      7.75714      5.01456        -0.000002     -0.000055      0.000117
      7.96056      2.96039      4.59843        -0.000020     -0.000032      0.000098
      1.66717      4.47681      6.66689         0.000116      0.000131      0.000050
      2.09642      4.90078      3.03632        -0.000006      0.000005     -0.000051
      6.77630      4.62974      2.07221         0.000006     -0.000053      0.000012
      7.93743      5.22033      6.37678         0.000057     -0.000053      0.000051
      4.42315      3.29021      7.93515         0.000033     -0.000044      0.000062
      4.42315      6.61298      1.55830         0.000033     -0.000062      0.000044
      5.31555      1.54610      3.30241        -0.000020     -0.000148      0.000148
      6.65771      5.76433      8.78379        -0.000182     -0.000048      0.000048
      4.84946      4.73229      4.94946        -0.000222      0.000167      0.000356
      4.84946      9.59867      0.11622        -0.000222     -0.000356     -0.000167
      0.02641      4.92321      9.62492        -0.000391      0.000521     -0.000521
      0.00793      9.69828      4.84985         0.000133     -0.000108      0.000108
      1.37207      8.61534      5.93279        -0.000123      0.000104     -0.000104
      1.11123      1.22847      3.62003         0.000015      0.000144     -0.000144
      8.48165      8.50903      3.71729        -0.000077     -0.000149     -0.000023
      8.48165      1.13121      6.03910        -0.000077      0.000023      0.000149
      8.49347      6.11402      1.07517        -0.000152      0.000028      0.000103
      8.49347      3.77334      8.43410        -0.000152     -0.000103     -0.000028
      1.21209      6.09685      8.45128         0.000207      0.000331     -0.000331
      1.29579      3.78157      1.06693        -0.000588      0.000289     -0.000289
      5.84205      1.16159      8.51785         0.000174      0.000117     -0.000049
      6.15028      8.46676      1.23894         0.000077     -0.000133     -0.000018
      3.80794      1.13058      1.39643        -0.000270      0.000221      0.000355
      3.68086      8.31335      8.76902         0.000371      0.000575      0.000259
      5.84205      6.03027      3.68691         0.000174      0.000049     -0.000117
      6.15028      3.60956      6.08136         0.000077      0.000018      0.000133
      3.68086      5.77911      6.23477         0.000371     -0.000259     -0.000575
      3.80794      3.45208      3.71792        -0.000270     -0.000355     -0.000221
      7.29772      7.33245      7.21567         0.000161     -0.000072      0.000072
      7.29738      2.40788      2.44063        -0.000012     -0.000046      0.000046
      2.33485      7.13567      2.51604         0.000015      0.000008      0.000065
      2.33485      2.33246      7.41245         0.000015     -0.000065     -0.000008
      0.01744      0.08333      0.06475        -0.000013     -0.000165      0.000120
      0.01744      4.78375      4.76518        -0.000013     -0.000120      0.000165
      4.76752      9.52541      5.02271         0.000103     -0.000208      0.000208
      5.09405      4.60529      0.24322         0.000750      0.000012     -0.000012
 -----------------------------------------------------------------------------------
    total drift:                               -0.015180     -0.012873      0.012889


--------------------------------------------------------------------------------------------------------



  FREE ENERGIE OF THE ION-ELECTRON SYSTEM (eV)
  ---------------------------------------------------
  free  energy   TOTEN  =      -271.51712878 eV

  energy  without entropy=     -271.51712878  energy(sigma->0) =     -271.51712878
 
 d Force = 0.5593756E-06[-0.289E-06, 0.141E-05]  d Energy = 0.1554260E-05-0.995E-06
 d Force = 0.7267692E-02[ 0.727E-02, 0.727E-02]  d Ewald  = 0.7267692E-02-0.182E-10


--------------------------------------------------------------------------------------------------------


    POTLOK:  cpu time      0.4617: real time      0.4637


--------------------------------------------------------------------------------------------------------


 stress matrix after NEB project (eV)
     -1.55576      0.83429     -0.83429
      0.83429      0.76513      2.65117
     -0.83429      2.65117      0.76513
  FORCES: max atom, RMS     0.000835    0.000318
  FORCE total and by dimension    0.002292    0.000750
  Stress total and by dimension    4.520264    2.651167


--------------------------------------------------------------------------------------------------------


  
 reached required accuracy - stopping structural energy minimisation
     LOOP+:  cpu time      6.2907: real time      6.3552
    4ORBIT:  cpu time      0.0000: real time      0.0000

 total amount of memory used by VASP MPI-rank0    46941. kBytes
=======================================================================

   base      :      30000. kBytes
   nonlr-proj:       6442. kBytes
   fftplans  :       1747. kBytes
   grid      :       5278. kBytes
   one-center:         62. kBytes
   wavefun   :       3412. kBytes
 
  
  
 General timing and accounting informations for this job:
 ========================================================
  
                  Total CPU time used (sec):      109.584
                            User time (sec):      107.962
                          System time (sec):        1.623
                         Elapsed time (sec):      114.316
  
                   Maximum memory used (kb):      391564.
                   Average memory used (kb):          N/A
  
                          Minor page faults:        70846
                          Major page faults:          130
                 Voluntary context switches:         7436
