unknown system                          
           1
     9.699618    0.000000    0.000000
     0.000000    9.699618    0.000000
     0.000000    0.000000    9.699618
   Li   P    S    Cl
    24     4    20     4
Direct configuration=     1
   0.97951606  0.26597163  0.23389397
   0.98397345  0.76591919  0.73394641
   0.01105272  0.17800696  0.81053358
   0.01105272  0.68933202  0.32185863
   0.21614121  0.18683467  0.99461013
   0.17188571  0.81252285  0.03830888
   0.69861602  0.28622644  0.02255904
   0.81833215  0.84243317  0.96166971
   0.27041587  0.96559299  0.28415270
   0.33385230  0.01917768  0.72612124
   0.67971051  0.98287542  0.70013369
   0.82070423  0.02577796  0.19466156
   0.33385230  0.77374435  0.48068791
   0.27041587  0.21571289  0.53427261
   0.67971051  0.79973190  0.51699018
   0.82070423  0.30520404  0.47408764
   0.17188571  0.46155671  0.68734274
   0.21614121  0.50525547  0.31303093
   0.69861602  0.47730656  0.21363915
   0.81833215  0.53819588  0.65743242
   0.45602078  0.33919999  0.81809216
   0.45602078  0.68177344  0.16066561
   0.54801036  0.15938579  0.34047981
   0.68638212  0.59428670  0.90557890
   0.49996355  0.48788518  0.51027280
   0.49996355  0.98959280  0.01198041
   0.00271864  0.50756006  0.99230553
   0.00081496  0.99986194  0.50000365
   0.14146211  0.88821868  0.61164691
   0.11455238  0.12665673  0.37320887
   0.87443057  0.87724972  0.38324292
   0.87443057  0.11662268  0.62261587
   0.87564891  0.63033074  0.11085061
   0.87564891  0.38901499  0.86953485
   0.12496091  0.62856557  0.87130002
   0.13359042  0.38986418  0.11000141
   0.60230313  0.11975807  0.87816694
   0.63407392  0.87289103  0.12772526
   0.39258871  0.11655794  0.14396994
   0.37948201  0.85708950  0.90404576
   0.60230313  0.62169866  0.38010753
   0.63407392  0.37214033  0.62697456
   0.37948201  0.59581983  0.64277610
   0.39258871  0.35589565  0.38330765
   0.75238145  0.75594997  0.74391562
   0.75232852  0.24823908  0.25162652
   0.24071675  0.73566444  0.25938924
   0.24071675  0.24047636  0.76420115
   0.00180002  0.00858729  0.00668027
   0.00180002  0.49318532  0.49127830
   0.49153216  0.98202808  0.51783751
   0.52519032  0.47479010  0.02507549
Direct configuration=     2
   0.97951709  0.26597123  0.23389436
   0.98397278  0.76591894  0.73394665
   0.01105248  0.17800727  0.81053329
   0.01105248  0.68933230  0.32185832
   0.21614054  0.18683426  0.99461017
   0.17188525  0.81252353  0.03830993
   0.69861600  0.28622655  0.02255860
   0.81833142  0.84243380  0.96166933
   0.27041978  0.96559272  0.28415600
   0.33385119  0.01917641  0.72612272
   0.67971044  0.98287588  0.70013329
   0.82070466  0.02577838  0.19466133
   0.33385119  0.77374287  0.48068918
   0.27041978  0.21570960  0.53427287
   0.67971044  0.79973230  0.51698971
   0.82070466  0.30520427  0.47408722
   0.17188525  0.46155567  0.68734207
   0.21614054  0.50525543  0.31303133
   0.69861600  0.47730700  0.21363905
   0.81833142  0.53819626  0.65743180
   0.45602003  0.33920091  0.81809178
   0.45602003  0.68177381  0.16066468
   0.54801098  0.15938689  0.34047870
   0.68638289  0.59428657  0.90557902
   0.49996333  0.48788562  0.51027364
   0.49996333  0.98959196  0.01197997
   0.00271969  0.50756037  0.99230522
   0.00081549  0.99986165  0.50000394
   0.14146123  0.88821850  0.61164709
   0.11455352  0.12665629  0.37320930
   0.87443059  0.87725011  0.38324272
   0.87443059  0.11662288  0.62261548
   0.87564892  0.63033142  0.11085040
   0.87564892  0.38901519  0.86953417
   0.12496082  0.62856516  0.87130044
   0.13359047  0.38986481  0.11000078
   0.60230260  0.11975799  0.87816658
   0.63407396  0.87289158  0.12772578
   0.39258847  0.11655836  0.14396991
   0.37948281  0.85708911  0.90404740
   0.60230260  0.62169902  0.38010761
   0.63407396  0.37213981  0.62697402
   0.37948281  0.59581819  0.64277648
   0.39258847  0.35589569  0.38330724
   0.75238045  0.75595022  0.74391537
   0.75232927  0.24823959  0.25162601
   0.24071668  0.73566452  0.25938984
   0.24071668  0.24047576  0.76420107
   0.00179993  0.00858771  0.00667984
   0.00179993  0.49318575  0.49127788
   0.49153078  0.98202942  0.51783618
   0.52518847  0.47479011  0.02507549
Direct configuration=     3
   0.97951795  0.26597091  0.23389468
   0.98397222  0.76591874  0.73394685
   0.01105228  0.17800753  0.81053306
   0.01105228  0.68933254  0.32185806
   0.21613998  0.18683393  0.99461020
   0.17188486  0.81252408  0.03831079
   0.69861598  0.28622663  0.02255823
   0.81833082  0.84243431  0.96166902
   0.27042299  0.96559250  0.28415870
   0.33385027  0.01917537  0.72612394
   0.67971038  0.98287627  0.70013297
   0.82070501  0.02577872  0.19466114
   0.33385027  0.77374166  0.48069022
   0.27042299  0.21570689  0.53427309
   0.67971038  0.79973263  0.51698933
   0.82070501  0.30520445  0.47408687
   0.17188486  0.46155481  0.68734151
   0.21613998  0.50525539  0.31303166
   0.69861598  0.47730736  0.21363896
   0.81833082  0.53819657  0.65743128
   0.45601940  0.33920168  0.81809147
   0.45601940  0.68177412  0.16066392
   0.54801149  0.15938780  0.34047779
   0.68638352  0.59428647  0.90557913
   0.49996315  0.48788598  0.51027432
   0.49996315  0.98959127  0.01197962
   0.00272055  0.50756062  0.99230497
   0.00081593  0.99986141  0.50000418
   0.14146050  0.88821835  0.61164725
   0.11455445  0.12665593  0.37320966
   0.87443062  0.87725043  0.38324255
   0.87443062  0.11662304  0.62261516
   0.87564892  0.63033198  0.11085023
   0.87564892  0.38901536  0.86953361
   0.12496074  0.62856481  0.87130078
   0.13359051  0.38986533  0.11000027
   0.60230217  0.11975792  0.87816629
   0.63407400  0.87289202  0.12772621
   0.39258826  0.11655870  0.14396988
   0.37948346  0.85708880  0.90404875
   0.60230217  0.62169931  0.38010767
   0.63407400  0.37213939  0.62697357
   0.37948346  0.59581684  0.64277679
   0.39258826  0.35589572  0.38330690
   0.75237963  0.75595043  0.74391517
   0.75232988  0.24824000  0.25162559
   0.24071662  0.73566458  0.25939033
   0.24071662  0.24047527  0.76420101
   0.00179986  0.00858805  0.00667949
   0.00179986  0.49318610  0.49127754
   0.49152965  0.98203051  0.51783508
   0.52518695  0.47479011  0.02507548
Direct configuration=     4
   0.97951965  0.26597026  0.23389533
   0.98397111  0.76591833  0.73394726
   0.01105187  0.17800805  0.81053259
   0.01105187  0.68933301  0.32185754
   0.21613887  0.18683327  0.99461027
   0.17188410  0.81252519  0.03831251
   0.69861594  0.28622681  0.02255751
   0.81832962  0.84243534  0.96166840
   0.27042941  0.96559206  0.28416411
   0.33384844  0.01917329  0.72612637
   0.67971026  0.98287704  0.70013232
   0.82070572  0.02577941  0.19466076
   0.33384844  0.77373923  0.48069231
   0.27042941  0.21570148  0.53427353
   0.67971026  0.79973328  0.51698856
   0.82070572  0.30520483  0.47408618
   0.17188410  0.46155309  0.68734040
   0.21613887  0.50525533  0.31303232
   0.69861594  0.47730809  0.21363879
   0.81832962  0.53819719  0.65743026
   0.45601816  0.33920320  0.81809085
   0.45601816  0.68177474  0.16066239
   0.54801252  0.15938962  0.34047597
   0.68638478  0.59428626  0.90557933
   0.49996279  0.48788669  0.51027570
   0.49996279  0.98958989  0.01197890
   0.00272227  0.50756113  0.99230446
   0.00081681  0.99986094  0.50000466
   0.14145905  0.88821804  0.61164755
   0.11455631  0.12665522  0.37321038
   0.87443066  0.87725106  0.38324222
   0.87443066  0.11662337  0.62261453
   0.87564894  0.63033310  0.11084990
   0.87564894  0.38901569  0.86953250
   0.12496058  0.62856412  0.87130147
   0.13359059  0.38986636  0.10999924
   0.60230130  0.11975779  0.87816570
   0.63407406  0.87289291  0.12772706
   0.39258786  0.11655937  0.14396982
   0.37948477  0.85708817  0.90405145
   0.60230130  0.62169989  0.38010781
   0.63407406  0.37213853  0.62697268
   0.37948477  0.59581414  0.64277742
   0.39258786  0.35589577  0.38330622
   0.75237799  0.75595084  0.74391475
   0.75233111  0.24824084  0.25162475
   0.24071651  0.73566471  0.25939131
   0.24071651  0.24047428  0.76420089
   0.00179972  0.00858874  0.00667879
   0.00179972  0.49318681  0.49127685
   0.49152739  0.98203270  0.51783289
   0.52518391  0.47479012  0.02507547
Direct configuration=     5
   0.97952013  0.26597008  0.23389551
   0.98397079  0.76591822  0.73394737
   0.01105176  0.17800820  0.81053245
   0.01105176  0.68933314  0.32185740
   0.21613856  0.18683308  0.99461029
   0.17188388  0.81252550  0.03831300
   0.69861593  0.28622686  0.02255730
   0.81832928  0.84243563  0.96166822
   0.27043123  0.96559194  0.28416565
   0.33384792  0.01917270  0.72612706
   0.67971022  0.98287725  0.70013213
   0.82070592  0.02577961  0.19466066
   0.33384792  0.77373854  0.48069290
   0.27043123  0.21569995  0.53427366
   0.67971022  0.79973346  0.51698834
   0.82070592  0.30520494  0.47408599
   0.17188388  0.46155260  0.68734009
   0.21613856  0.50525531  0.31303251
   0.69861593  0.47730829  0.21363874
   0.81832928  0.53819737  0.65742997
   0.45601780  0.33920364  0.81809067
   0.45601780  0.68177492  0.16066196
   0.54801281  0.15939013  0.34047546
   0.68638514  0.59428620  0.90557939
   0.49996269  0.48788689  0.51027609
   0.49996269  0.98958950  0.01197870
   0.00272276  0.50756127  0.99230432
   0.00081706  0.99986080  0.50000479
   0.14145864  0.88821796  0.61164764
   0.11455684  0.12665501  0.37321058
   0.87443067  0.87725124  0.38324213
   0.87443067  0.11662346  0.62261435
   0.87564894  0.63033341  0.11084980
   0.87564894  0.38901579  0.86953218
   0.12496053  0.62856393  0.87130167
   0.13359061  0.38986665  0.10999895
   0.60230105  0.11975775  0.87816553
   0.63407408  0.87289316  0.12772730
   0.39258775  0.11655957  0.14396981
   0.37948514  0.85708799  0.90405222
   0.60230105  0.62170006  0.38010784
   0.63407408  0.37213829  0.62697243
   0.37948514  0.59581338  0.64277760
   0.39258775  0.35589579  0.38330603
   0.75237752  0.75595096  0.74391464
   0.75233146  0.24824108  0.25162452
   0.24071647  0.73566474  0.25939159
   0.24071647  0.24047400  0.76420085
   0.00179968  0.00858894  0.00667859
   0.00179968  0.49318701  0.49127666
   0.49152675  0.98203332  0.51783227
   0.52518304  0.47479012  0.02507547
Direct configuration=     6
   0.97952109  0.26596971  0.23389588
   0.98397016  0.76591799  0.73394760
   0.01105153  0.17800849  0.81053218
   0.01105153  0.68933341  0.32185711
   0.21613793  0.18683270  0.99461032
   0.17188345  0.81252613  0.03831397
   0.69861591  0.28622696  0.02255689
   0.81832860  0.84243621  0.96166787
   0.27043487  0.96559169  0.28416872
   0.33384688  0.01917152  0.72612844
   0.67971016  0.98287769  0.70013176
   0.82070632  0.02578000  0.19466044
   0.33384688  0.77373716  0.48069408
   0.27043487  0.21569688  0.53427391
   0.67971016  0.79973383  0.51698790
   0.82070632  0.30520515  0.47408560
   0.17188345  0.46155162  0.68733946
   0.21613793  0.50525527  0.31303289
   0.69861591  0.47730870  0.21363864
   0.81832860  0.53819772  0.65742938
   0.45601710  0.33920450  0.81809032
   0.45601710  0.68177527  0.16066109
   0.54801339  0.15939117  0.34047443
   0.68638586  0.59428609  0.90557951
   0.49996248  0.48788730  0.51027687
   0.49996248  0.98958872  0.01197830
   0.00272374  0.50756156  0.99230404
   0.00081755  0.99986053  0.50000506
   0.14145782  0.88821779  0.61164781
   0.11455790  0.12665461  0.37321099
   0.87443070  0.87725160  0.38324194
   0.87443070  0.11662365  0.62261399
   0.87564895  0.63033405  0.11084961
   0.87564895  0.38901598  0.86953155
   0.12496044  0.62856354  0.87130206
   0.13359065  0.38986723  0.10999836
   0.60230056  0.11975767  0.87816520
   0.63407412  0.87289367  0.12772778
   0.39258752  0.11655995  0.14396977
   0.37948589  0.85708764  0.90405375
   0.60230056  0.62170039  0.38010792
   0.63407412  0.37213781  0.62697193
   0.37948589  0.59581185  0.64277796
   0.39258752  0.35589582  0.38330564
   0.75237659  0.75595119  0.74391440
   0.75233215  0.24824155  0.25162404
   0.24071641  0.73566481  0.25939215
   0.24071641  0.24047344  0.76420078
   0.00179959  0.00858933  0.00667819
   0.00179959  0.49318741  0.49127627
   0.49152547  0.98203457  0.51783103
   0.52518132  0.47479013  0.02507547
Direct configuration=     7
   0.97952302  0.26596898  0.23389662
   0.98396889  0.76591753  0.73394806
   0.01105107  0.17800907  0.81053165
   0.01105107  0.68933394  0.32185652
   0.21613667  0.18683195  0.99461040
   0.17188258  0.81252739  0.03831592
   0.69861586  0.28622715  0.02255607
   0.81832725  0.84243737  0.96166716
   0.27044215  0.96559119  0.28417485
   0.33384481  0.01916916  0.72613119
   0.67971002  0.98287856  0.70013102
   0.82070712  0.02578078  0.19466002
   0.33384481  0.77373440  0.48069644
   0.27044215  0.21569074  0.53427441
   0.67971002  0.79973457  0.51698703
   0.82070712  0.30520558  0.47408482
   0.17188258  0.46154967  0.68733820
   0.21613667  0.50525520  0.31303364
   0.69861586  0.47730953  0.21363844
   0.81832725  0.53819843  0.65742822
   0.45601569  0.33920623  0.81808962
   0.45601569  0.68177597  0.16065936
   0.54801455  0.15939323  0.34047237
   0.68638729  0.59428585  0.90557974
   0.49996207  0.48788811  0.51027843
   0.49996207  0.98958716  0.01197749
   0.00272570  0.50756213  0.99230346
   0.00081855  0.99985999  0.50000560
   0.14145618  0.88821744  0.61164815
   0.11456001  0.12665380  0.37321180
   0.87443075  0.87725233  0.38324157
   0.87443075  0.11662402  0.62261327
   0.87564896  0.63033531  0.11084923
   0.87564896  0.38901636  0.86953028
   0.12496027  0.62856275  0.87130284
   0.13359074  0.38986840  0.10999720
   0.60229957  0.11975752  0.87816454
   0.63407419  0.87289468  0.12772875
   0.39258706  0.11656072  0.14396971
   0.37948737  0.85708693  0.90405681
   0.60229957  0.62170106  0.38010807
   0.63407419  0.37213684  0.62697092
   0.37948737  0.59580879  0.64277867
   0.39258706  0.35589588  0.38330487
   0.75237473  0.75595166  0.74391394
   0.75233354  0.24824250  0.25162310
   0.24071628  0.73566495  0.25939327
   0.24071628  0.24047232  0.76420064
   0.00179943  0.00859011  0.00667739
   0.00179943  0.49318821  0.49127549
   0.49152290  0.98203705  0.51782854
   0.52517787  0.47479014  0.02507546
Direct configuration=     8
   0.97952407  0.26596863  0.23389697
   0.98396808  0.76591724  0.73394835
   0.01105074  0.17800941  0.81053136
   0.01105074  0.68933423  0.32185618
   0.21613602  0.18683152  0.99461051
   0.17188199  0.81252810  0.03831708
   0.69861576  0.28622727  0.02255558
   0.81832648  0.84243801  0.96166686
   0.27044624  0.96559104  0.28417822
   0.33384368  0.01916799  0.72613267
   0.67970994  0.98287909  0.70013062
   0.82070752  0.02578117  0.19465979
   0.33384368  0.77373292  0.48069760
   0.27044624  0.21568738  0.53427455
   0.67970994  0.79973497  0.51698650
   0.82070752  0.30520580  0.47408442
   0.17188199  0.46154851  0.68733749
   0.21613602  0.50525508  0.31303407
   0.69861576  0.47731002  0.21363833
   0.81832648  0.53819873  0.65742758
   0.45601494  0.33920714  0.81808933
   0.45601494  0.68177627  0.16065846
   0.54801508  0.15939437  0.34047122
   0.68638781  0.59428549  0.90558010
   0.49996260  0.48788700  0.51027716
   0.49996260  0.98958843  0.01197859
   0.00272498  0.50756335  0.99230224
   0.00081830  0.99986047  0.50000513
   0.14145610  0.88821656  0.61164903
   0.11456108  0.12665326  0.37321234
   0.87443083  0.87725265  0.38324147
   0.87443083  0.11662413  0.62261295
   0.87564916  0.63033549  0.11084857
   0.87564916  0.38901702  0.86953010
   0.12496091  0.62856346  0.87130213
   0.13359114  0.38986832  0.10999727
   0.60229898  0.11975729  0.87816427
   0.63407434  0.87289505  0.12772929
   0.39258705  0.11656047  0.14396914
   0.37948682  0.85708525  0.90405712
   0.60229898  0.62170133  0.38010831
   0.63407434  0.37213630  0.62697055
   0.37948682  0.59580847  0.64278035
   0.39258705  0.35589645  0.38330513
   0.75237389  0.75595186  0.74391374
   0.75233430  0.24824303  0.25162256
   0.24071617  0.73566510  0.25939400
   0.24071617  0.24047159  0.76420049
   0.00179911  0.00859032  0.00667696
   0.00179911  0.49318863  0.49127528
   0.49152112  0.98203769  0.51782791
   0.52517846  0.47479028  0.02507531
Direct configuration=     9
   0.97952722  0.26596757  0.23389802
   0.98396564  0.76591636  0.73394923
   0.01104973  0.17801043  0.81053049
   0.01104973  0.68933510  0.32185517
   0.21613406  0.18683024  0.99461084
   0.17188023  0.81253023  0.03832057
   0.69861544  0.28622761  0.02255411
   0.81832419  0.84243993  0.96166595
   0.27045850  0.96559060  0.28418831
   0.33384031  0.01916450  0.72613710
   0.67970971  0.98288070  0.70012943
   0.82070871  0.02578235  0.19465911
   0.33384031  0.77372850  0.48070109
   0.27045850  0.21567728  0.53427500
   0.67970971  0.79973617  0.51698490
   0.82070871  0.30520648  0.47408324
   0.17188023  0.46154503  0.68733537
   0.21613406  0.50525475  0.31303536
   0.69861544  0.47731149  0.21363798
   0.81832419  0.53819965  0.65742567
   0.45601272  0.33920985  0.81808845
   0.45601272  0.68177714  0.16065575
   0.54801667  0.15939780  0.34046779
   0.68638939  0.59428440  0.90558119
   0.49996416  0.48788369  0.51027335
   0.49996416  0.98959224  0.01198190
   0.00272281  0.50756702  0.99229857
   0.00081757  0.99986188  0.50000371
   0.14145586  0.88821391  0.61165168
   0.11456426  0.12665163  0.37321396
   0.87443108  0.87725361  0.38324115
   0.87443108  0.11662444  0.62261199
   0.87564975  0.63033603  0.11084658
   0.87564975  0.38901901  0.86952956
   0.12496283  0.62856557  0.87130002
   0.13359233  0.38986810  0.10999749
   0.60229721  0.11975658  0.87816345
   0.63407476  0.87289615  0.12773092
   0.39258703  0.11655970  0.14396745
   0.37948515  0.85708020  0.90405806
   0.60229721  0.62170214  0.38010902
   0.63407476  0.37213468  0.62696944
   0.37948515  0.59580753  0.64278539
   0.39258703  0.35589815  0.38330589
   0.75237140  0.75595245  0.74391314
   0.75233657  0.24824465  0.25162095
   0.24071584  0.73566555  0.25939621
   0.24071584  0.24046939  0.76420005
   0.00179817  0.00859095  0.00667567
   0.00179817  0.49318992  0.49127465
   0.49151575  0.98203959  0.51782600
   0.52518023  0.47479072  0.02507487
